 vasp.4.6.35 3Apr08 complex 
 executed on             LinuxIFC date 2014.06.01  01:28:23
 running on   16 nodes
 distr:  one band on    8 nodes,    2 groups


--------------------------------------------------------------------------------------------------------


 INCAR:
 POTCAR:   PAW_PBE Li_sv 23Jan2001                
 POTCAR:   PAW_PBE Nb_sv 17Jan2003                
 POTCAR:   PAW_PBE O 08Apr2002                    
 POTCAR:   PAW_PBE Li_sv 23Jan2001                
   VRHFIN =Li: 1s2s2p                                                           
   LEXCH  = PE                                                                  
   EATOM  =   202.7858 eV,   14.9043 Ry                                         
                                                                                
   TITEL  = PAW_PBE Li_sv 23Jan2001                                             
   LULTRA =        F    use ultrasoft PP ?                                      
   IUNSCR =        0    unscreen: 0-lin 1-nonlin 2-no                           
   RPACOR =     .000    partial core radius                                     
   POMASS =    7.010; ZVAL   =    3.000    mass and valenz                      
   RCORE  =    2.050    outmost cutoff radius                                   
   RWIGS  =    2.050; RWIGS  =    1.085    wigner-seitz radius (au A)           
   ENMAX  =  271.649; ENMIN  =  203.737 eV                                      
   ICORE  =        2    local potential                                         
   LCOR   =        T    correct aug charges                                     
   LPAW   =        T    paw PP                                                  
   EAUG   =  428.394                                                            
   RMAX   =    2.797    core radius for proj-oper                               
   RAUG   =    1.300    factor for augmentation sphere                          
   RDEP   =    2.094    radius for radial grids                                 
   RDEPT  =    1.550    core radius for aug-charge                              
   QCUT   =   -4.468; QGAM   =    8.937    optimization parameters              
                                                                                
   Description                                                                  
     l     E      TYP  RCUT    TYP  RCUT                                        
     0   .000     23  1.550                                                     
     0   .000     23  2.050                                                     
     0   .000     23  1.550                                                     
     0   .000     23  2.050                                                     
     1  -.200     23  2.050                                                     
     1  1.500     23  2.050                                                     
     2   .000      7  1.550                                                     
  local pseudopotential read in
  atomic valenz-charges read in
  non local Contribution for L=           0  read in
    real space projection operators read in
  non local Contribution for L=           0  read in
    real space projection operators read in
  non local Contribution for L=           1  read in
    real space projection operators read in
  non local Contribution for L=           1  read in
    real space projection operators read in
    PAW grid and wavefunctions read in
 
   number of l-projection  operators is LMAX  =           4
   number of lm-projection operators is LMMAX =           8
 
 POTCAR:   PAW_PBE Nb_sv 17Jan2003                
   VRHFIN =Nb: 4p5s4d                                                           
   LEXCH  = PE                                                                  
   EATOM  =  1555.1913 eV,  114.3033 Ry                                         
                                                                                
   TITEL  = PAW_PBE Nb_sv 17Jan2003                                             
   LULTRA =        F    use ultrasoft PP ?                                      
   IUNSCR =        1    unscreen: 0-lin 1-nonlin 2-no                           
   RPACOR =    1.800    partial core radius                                     
   POMASS =   92.910; ZVAL   =   13.000    mass and valenz                      
   RCORE  =    2.200    outmost cutoff radius                                   
   RWIGS  =    2.400; RWIGS  =    1.270    wigner-seitz radius (au A)           
   ENMAX  =  293.235; ENMIN  =  219.927 eV                                      
   RCLOC  =    1.411    cutoff for local pot                                    
   LCOR   =        T    correct aug charges                                     
   LPAW   =        T    paw PP                                                  
   EAUG   =  455.659                                                            
   DEXC   =     .000                                                            
   RMAX   =    2.693    core radius for proj-oper                               
   RAUG   =    1.300    factor for augmentation sphere                          
   RDEP   =    2.299    radius for radial grids                                 
   QCUT   =   -4.642; QGAM   =    9.285    optimization parameters              
                                                                                
   Description                                                                  
     l     E      TYP  RCUT    TYP  RCUT                                        
     0   .000     23  2.200                                                     
     0   .000     23  2.200                                                     
     0   .000     23  2.200                                                     
     0   .000     23  2.200                                                     
     1   .000     23  2.200                                                     
     1  1.000     23  2.200                                                     
     2   .000     23  2.200                                                     
     2   .000     23  2.200                                                     
     3   .000      7   .000                                                     
  local pseudopotential read in
  partial core-charges read in
  atomic valenz-charges read in
  non local Contribution for L=           0  read in
    real space projection operators read in
  non local Contribution for L=           0  read in
    real space projection operators read in
  non local Contribution for L=           1  read in
    real space projection operators read in
  non local Contribution for L=           1  read in
    real space projection operators read in
  non local Contribution for L=           2  read in
    real space projection operators read in
  non local Contribution for L=           2  read in
    real space projection operators read in
    PAW grid and wavefunctions read in
 
   number of l-projection  operators is LMAX  =           6
   number of lm-projection operators is LMMAX =          18
 
 POTCAR:   PAW_PBE O 08Apr2002                    
   VRHFIN =O: s2p4                                                              
   LEXCH  = PE                                                                  
   EATOM  =   432.3788 eV,   31.7789 Ry                                         
                                                                                
   TITEL  = PAW_PBE O 08Apr2002                                                 
   LULTRA =        F    use ultrasoft PP ?                                      
   IUNSCR =        0    unscreen: 0-lin 1-nonlin 2-no                           
   RPACOR =     .000    partial core radius                                     
   POMASS =   16.000; ZVAL   =    6.000    mass and valenz                      
   RCORE  =    1.520    outmost cutoff radius                                   
   RWIGS  =    1.550; RWIGS  =     .820    wigner-seitz radius (au A)           
   ENMAX  =  400.000; ENMIN  =  300.000 eV                                      
   ICORE  =        2    local potential                                         
   LCOR   =        T    correct aug charges                                     
   LPAW   =        T    paw PP                                                  
   EAUG   =  605.392                                                            
   DEXC   =     .000                                                            
   RMAX   =    2.264    core radius for proj-oper                               
   RAUG   =    1.300    factor for augmentation sphere                          
   RDEP   =    1.550    radius for radial grids                                 
   QCUT   =   -5.520; QGAM   =   11.041    optimization parameters              
                                                                                
   Description                                                                  
     l     E      TYP  RCUT    TYP  RCUT                                        
     0   .000     23  1.200                                                     
     0  -.700     23  1.200                                                     
     1   .000     23  1.520                                                     
     1   .600     23  1.520                                                     
     2   .000      7  1.500                                                     
  local pseudopotential read in
  atomic valenz-charges read in
  non local Contribution for L=           0  read in
    real space projection operators read in
  non local Contribution for L=           0  read in
    real space projection operators read in
  non local Contribution for L=           1  read in
    real space projection operators read in
  non local Contribution for L=           1  read in
    real space projection operators read in
    PAW grid and wavefunctions read in
 
   number of l-projection  operators is LMAX  =           4
   number of lm-projection operators is LMMAX =           8
 
 PAW_PBE Li_sv 23Jan2001                :
 energy of atom  1       EATOM= -202.7858
 kinetic energy error for atom=    0.0011 (will be added to EATOM!!)
 PAW_PBE Nb_sv 17Jan2003                :
 energy of atom  2       EATOM=-1555.1913
 kinetic energy error for atom=    0.0046 (will be added to EATOM!!)
 PAW_PBE O 08Apr2002                    :
 energy of atom  3       EATOM= -432.3788
 kinetic energy error for atom=    0.0190 (will be added to EATOM!!)
 
 EXHCAR: internal setup
 exchange correlation table for  LEXCH =        8
   RHO(1)=    0.500       N(1)  =     2000
   RHO(2)=  100.500       N(2)  =     4000
 
 POSCAR: Li1Nb1O2   [HEX,HEX,hP8] (STD_PRIM doi:1
  positions in direct lattice
  No initial velocities read in
 


--------------------------------------------------------------------------------------------------------


 ion  position               nearest neighbor table
   1  0.000  0.000 -0.000-   5 2.14   7 2.14   7 2.14   5 2.14   5 2.14   7 2.14
   2  0.000  0.000  0.500-   8 2.14   6 2.14   8 2.14   6 2.14   8 2.14   6 2.14
   3  0.667  0.333  0.750-   6 2.15   7 2.15   6 2.16   7 2.16   6 2.16   7 2.16
   4  0.333  0.667  0.250-   5 2.15   8 2.15   5 2.16   8 2.16   5 2.16   8 2.16
   5  0.667  0.333  0.124-   1 2.14   1 2.14   1 2.14   4 2.15   4 2.16   4 2.16
   6  0.333  0.667  0.624-   2 2.14   2 2.14   2 2.14   3 2.15   3 2.16   3 2.16
   7  0.333  0.667  0.876-   1 2.14   1 2.14   1 2.14   3 2.15   3 2.16   3 2.16
   8  0.667  0.333  0.376-   2 2.14   2 2.14   2 2.14   4 2.15   4 2.16   4 2.16
 
  LATTYP: Found a hexagonal cell.
 ALAT       =     2.9303342530
 C/A-ratio  =     3.6067384382
  
  Lattice vectors:
  
 A1 = (   1.4651671265,  -2.5377439047,   0.0000000000)
 A2 = (   1.4651671265,   2.5377439047,   0.0000000000)
 A3 = (   0.0000000000,   0.0000000000,  10.5689491870)
 Subroutine PRICEL returns:
 Original cell was already a primitive cell.
 

Analysis of symmetry for initial positions (statically):

 Routine SETGRP: Setting up the symmetry group for a 
 hexagonal supercell.


 Subroutine GETGRP returns: Found  8 space group operations
 (whereof  4 operations were pure point group operations)
 out of a pool of 24 trial point group operations.


The static configuration has the point symmetry C_2h.
 The point group associated with its full space group is D_2h.

Analysis of symmetry for dynamics (positions and initial velocities):

 Subroutine DYNSYM returns: Found  8 space group operations
 (whereof  4 operations were pure point group operations)
 out of a pool of  8 trial space group operations
 (whereof  4 operations were pure point group operations)
 and found also     1 'primitive' translations


The dynamic configuration has the point symmetry C_2h.
 The point group associated with its full space group is D_2h.
 
 
 KPOINTS: KPOINTS File, automatically generated by

Automatic generation of k-mesh.
 
 Subroutine IBZKPT returns following result:
 ===========================================
 
 Found    273 irreducible k-points:
 
 Following reciprocal coordinates:
            Coordinates               Weight
  0.000000  0.000000  0.000000      1.000000
  0.055556  0.000000  0.000000      4.000000
  0.111111  0.000000  0.000000      4.000000
  0.166667  0.000000  0.000000      4.000000
  0.222222  0.000000  0.000000      4.000000
  0.277778  0.000000  0.000000      4.000000
  0.333333  0.000000  0.000000      4.000000
  0.388889  0.000000  0.000000      4.000000
  0.444444  0.000000  0.000000      4.000000
  0.500000  0.000000  0.000000      2.000000
  0.000000  0.055556  0.000000      2.000000
  0.055556  0.055556  0.000000      4.000000
  0.111111  0.055556  0.000000      4.000000
  0.166667  0.055556  0.000000      4.000000
  0.222222  0.055556  0.000000      4.000000
  0.277778  0.055556  0.000000      4.000000
  0.333333  0.055556  0.000000      4.000000
  0.388889  0.055556  0.000000      4.000000
  0.444444  0.055556  0.000000      4.000000
  0.500000  0.055556  0.000000      4.000000
 -0.444444  0.055556  0.000000      4.000000
 -0.388889  0.055556  0.000000      4.000000
 -0.333333  0.055556  0.000000      4.000000
 -0.277778  0.055556  0.000000      4.000000
 -0.222222  0.055556  0.000000      4.000000
 -0.166667  0.055556  0.000000      4.000000
 -0.111111  0.055556  0.000000      2.000000
  0.000000  0.111111  0.000000      2.000000
  0.055556  0.111111  0.000000      4.000000
  0.111111  0.111111  0.000000      4.000000
  0.166667  0.111111  0.000000      4.000000
  0.222222  0.111111  0.000000      4.000000
  0.277778  0.111111  0.000000      4.000000
  0.333333  0.111111  0.000000      4.000000
  0.388889  0.111111  0.000000      4.000000
  0.444444  0.111111  0.000000      4.000000
  0.500000  0.111111  0.000000      4.000000
 -0.444444  0.111111  0.000000      4.000000
 -0.388889  0.111111  0.000000      4.000000
 -0.333333  0.111111  0.000000      4.000000
 -0.277778  0.111111  0.000000      4.000000
 -0.222222  0.111111  0.000000      2.000000
  0.000000  0.166667  0.000000      2.000000
  0.055556  0.166667  0.000000      4.000000
  0.111111  0.166667  0.000000      4.000000
  0.166667  0.166667  0.000000      4.000000
  0.222222  0.166667  0.000000      4.000000
  0.277778  0.166667  0.000000      4.000000
  0.333333  0.166667  0.000000      4.000000
  0.388889  0.166667  0.000000      4.000000
  0.444444  0.166667  0.000000      4.000000
  0.500000  0.166667  0.000000      4.000000
 -0.444444  0.166667  0.000000      4.000000
 -0.388889  0.166667  0.000000      4.000000
 -0.333333  0.166667  0.000000      2.000000
  0.000000  0.222222  0.000000      2.000000
  0.055556  0.222222  0.000000      4.000000
  0.111111  0.222222  0.000000      4.000000
  0.166667  0.222222  0.000000      4.000000
  0.222222  0.222222  0.000000      4.000000
  0.277778  0.222222  0.000000      4.000000
  0.333333  0.222222  0.000000      4.000000
  0.388889  0.222222  0.000000      4.000000
  0.444444  0.222222  0.000000      4.000000
  0.500000  0.222222  0.000000      4.000000
 -0.444444  0.222222  0.000000      2.000000
  0.000000  0.277778  0.000000      2.000000
  0.055556  0.277778  0.000000      4.000000
  0.111111  0.277778  0.000000      4.000000
  0.166667  0.277778  0.000000      4.000000
  0.222222  0.277778  0.000000      4.000000
  0.277778  0.277778  0.000000      4.000000
  0.333333  0.277778  0.000000      4.000000
  0.388889  0.277778  0.000000      4.000000
  0.444444  0.277778  0.000000      2.000000
  0.000000  0.333333  0.000000      2.000000
  0.055556  0.333333  0.000000      4.000000
  0.111111  0.333333  0.000000      4.000000
  0.166667  0.333333  0.000000      4.000000
  0.222222  0.333333  0.000000      4.000000
  0.277778  0.333333  0.000000      4.000000
  0.333333  0.333333  0.000000      2.000000
  0.000000  0.388889  0.000000      2.000000
  0.055556  0.388889  0.000000      4.000000
  0.111111  0.388889  0.000000      4.000000
  0.166667  0.388889  0.000000      4.000000
  0.222222  0.388889  0.000000      2.000000
  0.000000  0.444444  0.000000      2.000000
  0.055556  0.444444  0.000000      4.000000
  0.111111  0.444444  0.000000      2.000000
  0.000000  0.500000  0.000000      1.000000
  0.000000  0.000000  0.250000      2.000000
  0.055556  0.000000  0.250000      8.000000
  0.111111  0.000000  0.250000      8.000000
  0.166667  0.000000  0.250000      8.000000
  0.222222  0.000000  0.250000      8.000000
  0.277778  0.000000  0.250000      8.000000
  0.333333  0.000000  0.250000      8.000000
  0.388889  0.000000  0.250000      8.000000
  0.444444  0.000000  0.250000      8.000000
  0.500000  0.000000  0.250000      4.000000
  0.000000  0.055556  0.250000      4.000000
  0.055556  0.055556  0.250000      8.000000
  0.111111  0.055556  0.250000      8.000000
  0.166667  0.055556  0.250000      8.000000
  0.222222  0.055556  0.250000      8.000000
  0.277778  0.055556  0.250000      8.000000
  0.333333  0.055556  0.250000      8.000000
  0.388889  0.055556  0.250000      8.000000
  0.444444  0.055556  0.250000      8.000000
  0.500000  0.055556  0.250000      8.000000
 -0.444444  0.055556  0.250000      8.000000
 -0.388889  0.055556  0.250000      8.000000
 -0.333333  0.055556  0.250000      8.000000
 -0.277778  0.055556  0.250000      8.000000
 -0.222222  0.055556  0.250000      8.000000
 -0.166667  0.055556  0.250000      8.000000
 -0.111111  0.055556  0.250000      4.000000
  0.000000  0.111111  0.250000      4.000000
  0.055556  0.111111  0.250000      8.000000
  0.111111  0.111111  0.250000      8.000000
  0.166667  0.111111  0.250000      8.000000
  0.222222  0.111111  0.250000      8.000000
  0.277778  0.111111  0.250000      8.000000
  0.333333  0.111111  0.250000      8.000000
  0.388889  0.111111  0.250000      8.000000
  0.444444  0.111111  0.250000      8.000000
  0.500000  0.111111  0.250000      8.000000
 -0.444444  0.111111  0.250000      8.000000
 -0.388889  0.111111  0.250000      8.000000
 -0.333333  0.111111  0.250000      8.000000
 -0.277778  0.111111  0.250000      8.000000
 -0.222222  0.111111  0.250000      4.000000
  0.000000  0.166667  0.250000      4.000000
  0.055556  0.166667  0.250000      8.000000
  0.111111  0.166667  0.250000      8.000000
  0.166667  0.166667  0.250000      8.000000
  0.222222  0.166667  0.250000      8.000000
  0.277778  0.166667  0.250000      8.000000
  0.333333  0.166667  0.250000      8.000000
  0.388889  0.166667  0.250000      8.000000
  0.444444  0.166667  0.250000      8.000000
  0.500000  0.166667  0.250000      8.000000
 -0.444444  0.166667  0.250000      8.000000
 -0.388889  0.166667  0.250000      8.000000
 -0.333333  0.166667  0.250000      4.000000
  0.000000  0.222222  0.250000      4.000000
  0.055556  0.222222  0.250000      8.000000
  0.111111  0.222222  0.250000      8.000000
  0.166667  0.222222  0.250000      8.000000
  0.222222  0.222222  0.250000      8.000000
  0.277778  0.222222  0.250000      8.000000
  0.333333  0.222222  0.250000      8.000000
  0.388889  0.222222  0.250000      8.000000
  0.444444  0.222222  0.250000      8.000000
  0.500000  0.222222  0.250000      8.000000
 -0.444444  0.222222  0.250000      4.000000
  0.000000  0.277778  0.250000      4.000000
  0.055556  0.277778  0.250000      8.000000
  0.111111  0.277778  0.250000      8.000000
  0.166667  0.277778  0.250000      8.000000
  0.222222  0.277778  0.250000      8.000000
  0.277778  0.277778  0.250000      8.000000
  0.333333  0.277778  0.250000      8.000000
  0.388889  0.277778  0.250000      8.000000
  0.444444  0.277778  0.250000      4.000000
  0.000000  0.333333  0.250000      4.000000
  0.055556  0.333333  0.250000      8.000000
  0.111111  0.333333  0.250000      8.000000
  0.166667  0.333333  0.250000      8.000000
  0.222222  0.333333  0.250000      8.000000
  0.277778  0.333333  0.250000      8.000000
  0.333333  0.333333  0.250000      4.000000
  0.000000  0.388889  0.250000      4.000000
  0.055556  0.388889  0.250000      8.000000
  0.111111  0.388889  0.250000      8.000000
  0.166667  0.388889  0.250000      8.000000
  0.222222  0.388889  0.250000      4.000000
  0.000000  0.444444  0.250000      4.000000
  0.055556  0.444444  0.250000      8.000000
  0.111111  0.444444  0.250000      4.000000
  0.000000  0.500000  0.250000      2.000000
  0.000000  0.000000  0.500000      1.000000
  0.055556  0.000000  0.500000      4.000000
  0.111111  0.000000  0.500000      4.000000
  0.166667  0.000000  0.500000      4.000000
  0.222222  0.000000  0.500000      4.000000
  0.277778  0.000000  0.500000      4.000000
  0.333333  0.000000  0.500000      4.000000
  0.388889  0.000000  0.500000      4.000000
  0.444444  0.000000  0.500000      4.000000
  0.500000  0.000000  0.500000      2.000000
  0.000000  0.055556  0.500000      2.000000
  0.055556  0.055556  0.500000      4.000000
  0.111111  0.055556  0.500000      4.000000
  0.166667  0.055556  0.500000      4.000000
  0.222222  0.055556  0.500000      4.000000
  0.277778  0.055556  0.500000      4.000000
  0.333333  0.055556  0.500000      4.000000
  0.388889  0.055556  0.500000      4.000000
  0.444444  0.055556  0.500000      4.000000
  0.500000  0.055556  0.500000      4.000000
 -0.444444  0.055556  0.500000      4.000000
 -0.388889  0.055556  0.500000      4.000000
 -0.333333  0.055556  0.500000      4.000000
 -0.277778  0.055556  0.500000      4.000000
 -0.222222  0.055556  0.500000      4.000000
 -0.166667  0.055556  0.500000      4.000000
 -0.111111  0.055556  0.500000      2.000000
  0.000000  0.111111  0.500000      2.000000
  0.055556  0.111111  0.500000      4.000000
  0.111111  0.111111  0.500000      4.000000
  0.166667  0.111111  0.500000      4.000000
  0.222222  0.111111  0.500000      4.000000
  0.277778  0.111111  0.500000      4.000000
  0.333333  0.111111  0.500000      4.000000
  0.388889  0.111111  0.500000      4.000000
  0.444444  0.111111  0.500000      4.000000
  0.500000  0.111111  0.500000      4.000000
 -0.444444  0.111111  0.500000      4.000000
 -0.388889  0.111111  0.500000      4.000000
 -0.333333  0.111111  0.500000      4.000000
 -0.277778  0.111111  0.500000      4.000000
 -0.222222  0.111111  0.500000      2.000000
  0.000000  0.166667  0.500000      2.000000
  0.055556  0.166667  0.500000      4.000000
  0.111111  0.166667  0.500000      4.000000
  0.166667  0.166667  0.500000      4.000000
  0.222222  0.166667  0.500000      4.000000
  0.277778  0.166667  0.500000      4.000000
  0.333333  0.166667  0.500000      4.000000
  0.388889  0.166667  0.500000      4.000000
  0.444444  0.166667  0.500000      4.000000
  0.500000  0.166667  0.500000      4.000000
 -0.444444  0.166667  0.500000      4.000000
 -0.388889  0.166667  0.500000      4.000000
 -0.333333  0.166667  0.500000      2.000000
  0.000000  0.222222  0.500000      2.000000
  0.055556  0.222222  0.500000      4.000000
  0.111111  0.222222  0.500000      4.000000
  0.166667  0.222222  0.500000      4.000000
  0.222222  0.222222  0.500000      4.000000
  0.277778  0.222222  0.500000      4.000000
  0.333333  0.222222  0.500000      4.000000
  0.388889  0.222222  0.500000      4.000000
  0.444444  0.222222  0.500000      4.000000
  0.500000  0.222222  0.500000      4.000000
 -0.444444  0.222222  0.500000      2.000000
  0.000000  0.277778  0.500000      2.000000
  0.055556  0.277778  0.500000      4.000000
  0.111111  0.277778  0.500000      4.000000
  0.166667  0.277778  0.500000      4.000000
  0.222222  0.277778  0.500000      4.000000
  0.277778  0.277778  0.500000      4.000000
  0.333333  0.277778  0.500000      4.000000
  0.388889  0.277778  0.500000      4.000000
  0.444444  0.277778  0.500000      2.000000
  0.000000  0.333333  0.500000      2.000000
  0.055556  0.333333  0.500000      4.000000
  0.111111  0.333333  0.500000      4.000000
  0.166667  0.333333  0.500000      4.000000
  0.222222  0.333333  0.500000      4.000000
  0.277778  0.333333  0.500000      4.000000
  0.333333  0.333333  0.500000      2.000000
  0.000000  0.388889  0.500000      2.000000
  0.055556  0.388889  0.500000      4.000000
  0.111111  0.388889  0.500000      4.000000
  0.166667  0.388889  0.500000      4.000000
  0.222222  0.388889  0.500000      2.000000
  0.000000  0.444444  0.500000      2.000000
  0.055556  0.444444  0.500000      4.000000
  0.111111  0.444444  0.500000      2.000000
  0.000000  0.500000  0.500000      1.000000
 
 Following cartesian coordinates:
            Coordinates               Weight
  0.000000  0.000000  0.000000      1.000000
  0.018959 -0.010946  0.000000      4.000000
  0.037918 -0.021892  0.000000      4.000000
  0.056877 -0.032838  0.000000      4.000000
  0.075836 -0.043784  0.000000      4.000000
  0.094795 -0.054730  0.000000      4.000000
  0.113754 -0.065676  0.000000      4.000000
  0.132713 -0.076622  0.000000      4.000000
  0.151672 -0.087568  0.000000      4.000000
  0.170631 -0.098514  0.000000      2.000000
  0.018959  0.010946  0.000000      2.000000
  0.037918  0.000000  0.000000      4.000000
  0.056877 -0.010946  0.000000      4.000000
  0.075836 -0.021892  0.000000      4.000000
  0.094795 -0.032838  0.000000      4.000000
  0.113754 -0.043784  0.000000      4.000000
  0.132713 -0.054730  0.000000      4.000000
  0.151672 -0.065676  0.000000      4.000000
  0.170631 -0.076622  0.000000      4.000000
  0.189590 -0.087568  0.000000      4.000000
 -0.132713  0.098514  0.000000      4.000000
 -0.113754  0.087568  0.000000      4.000000
 -0.094795  0.076622  0.000000      4.000000
 -0.075836  0.065676  0.000000      4.000000
 -0.056877  0.054730  0.000000      4.000000
 -0.037918  0.043784  0.000000      4.000000
 -0.018959  0.032838  0.000000      2.000000
  0.037918  0.021892  0.000000      2.000000
  0.056877  0.010946  0.000000      4.000000
  0.075836  0.000000  0.000000      4.000000
  0.094795 -0.010946  0.000000      4.000000
  0.113754 -0.021892  0.000000      4.000000
  0.132713 -0.032838  0.000000      4.000000
  0.151672 -0.043784  0.000000      4.000000
  0.170631 -0.054730  0.000000      4.000000
  0.189590 -0.065676  0.000000      4.000000
  0.208549 -0.076622  0.000000      4.000000
 -0.113754  0.109460  0.000000      4.000000
 -0.094795  0.098514  0.000000      4.000000
 -0.075836  0.087568  0.000000      4.000000
 -0.056877  0.076622  0.000000      4.000000
 -0.037918  0.065676  0.000000      2.000000
  0.056877  0.032838  0.000000      2.000000
  0.075836  0.021892  0.000000      4.000000
  0.094795  0.010946  0.000000      4.000000
  0.113754  0.000000  0.000000      4.000000
  0.132713 -0.010946  0.000000      4.000000
  0.151672 -0.021892  0.000000      4.000000
  0.170631 -0.032838  0.000000      4.000000
  0.189590 -0.043784  0.000000      4.000000
  0.208549 -0.054730  0.000000      4.000000
  0.227508 -0.065676  0.000000      4.000000
 -0.094795  0.120406  0.000000      4.000000
 -0.075836  0.109460  0.000000      4.000000
 -0.056877  0.098514  0.000000      2.000000
  0.075836  0.043784  0.000000      2.000000
  0.094795  0.032838  0.000000      4.000000
  0.113754  0.021892  0.000000      4.000000
  0.132713  0.010946  0.000000      4.000000
  0.151672  0.000000  0.000000      4.000000
  0.170631 -0.010946  0.000000      4.000000
  0.189590 -0.021892  0.000000      4.000000
  0.208549 -0.032838  0.000000      4.000000
  0.227508 -0.043784  0.000000      4.000000
  0.246467 -0.054730  0.000000      4.000000
 -0.075836  0.131352  0.000000      2.000000
  0.094795  0.054730  0.000000      2.000000
  0.113754  0.043784  0.000000      4.000000
  0.132713  0.032838  0.000000      4.000000
  0.151672  0.021892  0.000000      4.000000
  0.170631  0.010946  0.000000      4.000000
  0.189590  0.000000  0.000000      4.000000
  0.208549 -0.010946  0.000000      4.000000
  0.227508 -0.021892  0.000000      4.000000
  0.246467 -0.032838  0.000000      2.000000
  0.113754  0.065676  0.000000      2.000000
  0.132713  0.054730  0.000000      4.000000
  0.151672  0.043784  0.000000      4.000000
  0.170631  0.032838  0.000000      4.000000
  0.189590  0.021892  0.000000      4.000000
  0.208549  0.010946  0.000000      4.000000
  0.227508  0.000000  0.000000      2.000000
  0.132713  0.076622  0.000000      2.000000
  0.151672  0.065676  0.000000      4.000000
  0.170631  0.054730  0.000000      4.000000
  0.189590  0.043784  0.000000      4.000000
  0.208549  0.032838  0.000000      2.000000
  0.151672  0.087568  0.000000      2.000000
  0.170631  0.076622  0.000000      4.000000
  0.189590  0.065676  0.000000      2.000000
  0.170631  0.098514  0.000000      1.000000
  0.000000  0.000000  0.023654      2.000000
  0.018959 -0.010946  0.023654      8.000000
  0.037918 -0.021892  0.023654      8.000000
  0.056877 -0.032838  0.023654      8.000000
  0.075836 -0.043784  0.023654      8.000000
  0.094795 -0.054730  0.023654      8.000000
  0.113754 -0.065676  0.023654      8.000000
  0.132713 -0.076622  0.023654      8.000000
  0.151672 -0.087568  0.023654      8.000000
  0.170631 -0.098514  0.023654      4.000000
  0.018959  0.010946  0.023654      4.000000
  0.037918  0.000000  0.023654      8.000000
  0.056877 -0.010946  0.023654      8.000000
  0.075836 -0.021892  0.023654      8.000000
  0.094795 -0.032838  0.023654      8.000000
  0.113754 -0.043784  0.023654      8.000000
  0.132713 -0.054730  0.023654      8.000000
  0.151672 -0.065676  0.023654      8.000000
  0.170631 -0.076622  0.023654      8.000000
  0.189590 -0.087568  0.023654      8.000000
 -0.132713  0.098514  0.023654      8.000000
 -0.113754  0.087568  0.023654      8.000000
 -0.094795  0.076622  0.023654      8.000000
 -0.075836  0.065676  0.023654      8.000000
 -0.056877  0.054730  0.023654      8.000000
 -0.037918  0.043784  0.023654      8.000000
 -0.018959  0.032838  0.023654      4.000000
  0.037918  0.021892  0.023654      4.000000
  0.056877  0.010946  0.023654      8.000000
  0.075836  0.000000  0.023654      8.000000
  0.094795 -0.010946  0.023654      8.000000
  0.113754 -0.021892  0.023654      8.000000
  0.132713 -0.032838  0.023654      8.000000
  0.151672 -0.043784  0.023654      8.000000
  0.170631 -0.054730  0.023654      8.000000
  0.189590 -0.065676  0.023654      8.000000
  0.208549 -0.076622  0.023654      8.000000
 -0.113754  0.109460  0.023654      8.000000
 -0.094795  0.098514  0.023654      8.000000
 -0.075836  0.087568  0.023654      8.000000
 -0.056877  0.076622  0.023654      8.000000
 -0.037918  0.065676  0.023654      4.000000
  0.056877  0.032838  0.023654      4.000000
  0.075836  0.021892  0.023654      8.000000
  0.094795  0.010946  0.023654      8.000000
  0.113754  0.000000  0.023654      8.000000
  0.132713 -0.010946  0.023654      8.000000
  0.151672 -0.021892  0.023654      8.000000
  0.170631 -0.032838  0.023654      8.000000
  0.189590 -0.043784  0.023654      8.000000
  0.208549 -0.054730  0.023654      8.000000
  0.227508 -0.065676  0.023654      8.000000
 -0.094795  0.120406  0.023654      8.000000
 -0.075836  0.109460  0.023654      8.000000
 -0.056877  0.098514  0.023654      4.000000
  0.075836  0.043784  0.023654      4.000000
  0.094795  0.032838  0.023654      8.000000
  0.113754  0.021892  0.023654      8.000000
  0.132713  0.010946  0.023654      8.000000
  0.151672  0.000000  0.023654      8.000000
  0.170631 -0.010946  0.023654      8.000000
  0.189590 -0.021892  0.023654      8.000000
  0.208549 -0.032838  0.023654      8.000000
  0.227508 -0.043784  0.023654      8.000000
  0.246467 -0.054730  0.023654      8.000000
 -0.075836  0.131352  0.023654      4.000000
  0.094795  0.054730  0.023654      4.000000
  0.113754  0.043784  0.023654      8.000000
  0.132713  0.032838  0.023654      8.000000
  0.151672  0.021892  0.023654      8.000000
  0.170631  0.010946  0.023654      8.000000
  0.189590  0.000000  0.023654      8.000000
  0.208549 -0.010946  0.023654      8.000000
  0.227508 -0.021892  0.023654      8.000000
  0.246467 -0.032838  0.023654      4.000000
  0.113754  0.065676  0.023654      4.000000
  0.132713  0.054730  0.023654      8.000000
  0.151672  0.043784  0.023654      8.000000
  0.170631  0.032838  0.023654      8.000000
  0.189590  0.021892  0.023654      8.000000
  0.208549  0.010946  0.023654      8.000000
  0.227508  0.000000  0.023654      4.000000
  0.132713  0.076622  0.023654      4.000000
  0.151672  0.065676  0.023654      8.000000
  0.170631  0.054730  0.023654      8.000000
  0.189590  0.043784  0.023654      8.000000
  0.208549  0.032838  0.023654      4.000000
  0.151672  0.087568  0.023654      4.000000
  0.170631  0.076622  0.023654      8.000000
  0.189590  0.065676  0.023654      4.000000
  0.170631  0.098514  0.023654      2.000000
  0.000000  0.000000  0.047309      1.000000
  0.018959 -0.010946  0.047309      4.000000
  0.037918 -0.021892  0.047309      4.000000
  0.056877 -0.032838  0.047309      4.000000
  0.075836 -0.043784  0.047309      4.000000
  0.094795 -0.054730  0.047309      4.000000
  0.113754 -0.065676  0.047309      4.000000
  0.132713 -0.076622  0.047309      4.000000
  0.151672 -0.087568  0.047309      4.000000
  0.170631 -0.098514  0.047309      2.000000
  0.018959  0.010946  0.047309      2.000000
  0.037918  0.000000  0.047309      4.000000
  0.056877 -0.010946  0.047309      4.000000
  0.075836 -0.021892  0.047309      4.000000
  0.094795 -0.032838  0.047309      4.000000
  0.113754 -0.043784  0.047309      4.000000
  0.132713 -0.054730  0.047309      4.000000
  0.151672 -0.065676  0.047309      4.000000
  0.170631 -0.076622  0.047309      4.000000
  0.189590 -0.087568  0.047309      4.000000
 -0.132713  0.098514  0.047309      4.000000
 -0.113754  0.087568  0.047309      4.000000
 -0.094795  0.076622  0.047309      4.000000
 -0.075836  0.065676  0.047309      4.000000
 -0.056877  0.054730  0.047309      4.000000
 -0.037918  0.043784  0.047309      4.000000
 -0.018959  0.032838  0.047309      2.000000
  0.037918  0.021892  0.047309      2.000000
  0.056877  0.010946  0.047309      4.000000
  0.075836  0.000000  0.047309      4.000000
  0.094795 -0.010946  0.047309      4.000000
  0.113754 -0.021892  0.047309      4.000000
  0.132713 -0.032838  0.047309      4.000000
  0.151672 -0.043784  0.047309      4.000000
  0.170631 -0.054730  0.047309      4.000000
  0.189590 -0.065676  0.047309      4.000000
  0.208549 -0.076622  0.047309      4.000000
 -0.113754  0.109460  0.047309      4.000000
 -0.094795  0.098514  0.047309      4.000000
 -0.075836  0.087568  0.047309      4.000000
 -0.056877  0.076622  0.047309      4.000000
 -0.037918  0.065676  0.047309      2.000000
  0.056877  0.032838  0.047309      2.000000
  0.075836  0.021892  0.047309      4.000000
  0.094795  0.010946  0.047309      4.000000
  0.113754  0.000000  0.047309      4.000000
  0.132713 -0.010946  0.047309      4.000000
  0.151672 -0.021892  0.047309      4.000000
  0.170631 -0.032838  0.047309      4.000000
  0.189590 -0.043784  0.047309      4.000000
  0.208549 -0.054730  0.047309      4.000000
  0.227508 -0.065676  0.047309      4.000000
 -0.094795  0.120406  0.047309      4.000000
 -0.075836  0.109460  0.047309      4.000000
 -0.056877  0.098514  0.047309      2.000000
  0.075836  0.043784  0.047309      2.000000
  0.094795  0.032838  0.047309      4.000000
  0.113754  0.021892  0.047309      4.000000
  0.132713  0.010946  0.047309      4.000000
  0.151672  0.000000  0.047309      4.000000
  0.170631 -0.010946  0.047309      4.000000
  0.189590 -0.021892  0.047309      4.000000
  0.208549 -0.032838  0.047309      4.000000
  0.227508 -0.043784  0.047309      4.000000
  0.246467 -0.054730  0.047309      4.000000
 -0.075836  0.131352  0.047309      2.000000
  0.094795  0.054730  0.047309      2.000000
  0.113754  0.043784  0.047309      4.000000
  0.132713  0.032838  0.047309      4.000000
  0.151672  0.021892  0.047309      4.000000
  0.170631  0.010946  0.047309      4.000000
  0.189590  0.000000  0.047309      4.000000
  0.208549 -0.010946  0.047309      4.000000
  0.227508 -0.021892  0.047309      4.000000
  0.246467 -0.032838  0.047309      2.000000
  0.113754  0.065676  0.047309      2.000000
  0.132713  0.054730  0.047309      4.000000
  0.151672  0.043784  0.047309      4.000000
  0.170631  0.032838  0.047309      4.000000
  0.189590  0.021892  0.047309      4.000000
  0.208549  0.010946  0.047309      4.000000
  0.227508  0.000000  0.047309      2.000000
  0.132713  0.076622  0.047309      2.000000
  0.151672  0.065676  0.047309      4.000000
  0.170631  0.054730  0.047309      4.000000
  0.189590  0.043784  0.047309      4.000000
  0.208549  0.032838  0.047309      2.000000
  0.151672  0.087568  0.047309      2.000000
  0.170631  0.076622  0.047309      4.000000
  0.189590  0.065676  0.047309      2.000000
  0.170631  0.098514  0.047309      1.000000
 
 TETIRR: Found   3276 inequivalent tetrahedra from     7776


--------------------------------------------------------------------------------------------------------




 Dimension of arrays:
   k-Points           NKPTS =    273   number of bands    NBANDS=     80
   number of dos      NEDOS =   5000   number of ions     NIONS =      8
   non local maximal  LDIM  =      6   non local SUM 2l+1 LMDIM =     18
   total plane-waves  NPLWV =  48384
   max r-space proj   IRMAX =      1   max aug-charges    IRDMAX=   8475
   dimension x,y,z NGX =    24 NGY =   24 NGZ =   84
   dimension x,y,z NGXF=    32 NGYF=   32 NGZF=  120
   support grid    NGXF=    32 NGYF=   32 NGZF=  120
   ions per type =               2   2   4
 NGX,Y,Z   is equivalent  to a cutoff of  13.62, 13.62, 13.21 a.u.
 NGXF,Y,Z  is equivalent  to a cutoff of  18.15, 18.15, 18.88 a.u.


 I would recommend the setting:
   dimension x,y,z NGX =    23 NGY =   23 NGZ =   82
 SYSTEM =  Li1Nb1O2_ICSD_42008                     
 POSCAR =  Li1Nb1O2   [HEX,HEX,hP8] (STD_PRIM doi:1

 Startparameter for this run:
   NWRITE =      2    write-flag & timer
   PREC   = high      medium, high low
   ISTART =      0    job   : 0-new  1-cont  2-samecut
   ICHARG =      2    charge: 1-file 2-atom 10-const
   ISPIN  =      1    spin polarized calculation?
   LNONCOLLINEAR =      F non collinear calculations
   LSORBIT =      F    spin-orbit coupling
   INIWAV =      1    electr: 0-lowe 1-rand  2-diag
   LASPH  =      F    aspherical Exc in radial PAW
   METAGGA=      F    non-selfconsistent MetaGGA calc.

 Electronic Relaxation 1
   ENCUT  =  560.0 eV  41.16 Ry    6.42 a.u.   5.65  5.65 20.39*2*pi/ulx,y,z
   ENINI  =  560.0     initial cutoff
   ENAUG  =  605.4 eV  augmentation charge cutoff
   NELM   =    120;   NELMIN=  2; NELMDL=  0     # of ELM steps 
   EDIFF  = 0.1E-03   stopping-criterion for ELM
   LREAL  =      F    real-space projection
   LCOMPAT=      F    compatible to vasp.4.4
   LREAL_COMPAT= F    compatible to vasp.4.5.1-3
   GGA_COMPAT  = T    GGA compatible to vasp.4.4-vasp.4.6
   LMAXPAW     = -100 max onsite density
   LMAXMIX     =    4 max onsite mixed and CHGCAR
   VOSKOWN=      0    Vosko Wilk Nusair interpolation
   ROPT   =    0.00000   0.00000   0.00000
 Ionic relaxation
   EDIFFG = 0.1E-02   stopping-criterion for IOM
   NSW    =      0    number of steps for IOM
   NBLOCK =      1;   KBLOCK =      1    inner block; outer block 
   IBRION =     -1    ionic relax: 0-MD 1-quasi-New 2-CG
   NFREE  =      1    steps in history (QN), initial steepest desc. (CG)
   ISIF   =      2    stress and relaxation
   IWAVPR =     10    prediction:  0-non 1-charg 2-wave 3-comb
   ISYM   =      2    0-nonsym 1-usesym 2-fastsym
   LCORR  =      T    Harris-Foulkes like correction to forces

   POTIM  =   0.50    time-step for ionic-motion
   TEIN   =    0.0    initial temperature
   TEBEG  =    0.0;   TEEND  =   0.0 temperature during run
   SMASS  =  -3.00    Nose mass-parameter (am)
   estimated Nose-frequenzy (Omega)   =  0.10E-29 period in steps =****** mass=  -0.196E-27a.u.
   NPACO  =    256;   APACO  = 16.0  distance and # of slots for P.C.
   PSTRESS=    0.0 pullay stress

  Mass of Ions in am
   POMASS =   7.01 92.91 16.00
  Ionic Valenz
   ZVAL   =   3.00 13.00  6.00
  Atomic Wigner-Seitz radii
   RWIGS  =  -1.00 -1.00 -1.00
   NELECT =      56.0000    total number of electrons
   NUPDOWN=      -1.0000    fix difference up-down

 DOS related values:
   EMIN   = -30.00;   EMAX   = 45.00  energy-range for DOS
   ISMEAR =    -5;   SIGMA  =   0.05  broadening in eV -4-tet -1-fermi 0-gaus

 Electronic relaxation 2 (details)
   IALGO  =     38    algorithm
   LDIAG  =      T    sub-space diagonalisation
   IMIX   =      4    mixing-type and parameters
     AMIX     =   0.40;   BMIX     =  1.00
     AMIX_MAG =   1.60;   BMIX_MAG =  1.00
     AMIN     =   0.10
     WC   =   100.;   INIMIX=   1;  MIXPRE=   1

 Intra band minimization:
   WEIMIN = 0.0000     energy-eigenvalue tresh-hold
   EBREAK =  0.31E-06  absolut break condition
   DEPER  =   0.30     relativ break condition  

   TIME   =   0.10     timestep for ELM

  volume/ion in A,a.u.               =       9.82        66.30
  Fermi-wavevector in a.u.,eV,Ry     =   1.462195 29.089444  2.138014

 Second variation
   LSECVAR=     F    do a second variation
 
 Write flags
   LWAVE  =      F    write WAVECAR
   LCHARG =      T    write CHGCAR
   LVTOT  =      F    write LOCPOT, local potential
   LELF   =      F    write electronic localiz. function (ELF)
   LORBIT =     10    0 simple, 1 ext, 2 COOP (PROOUT)


 Dipole corrections
   IDIPOL =      0    1-x, 2-y, 3-z
   LDIPOL =      F    correct potential

 LDA+U is selected, type is set to LDAUTYPE =  2
   angular momentum for each species LDAUL =     0    2    0
   U (eV)           for each species LDAUU =   0.0  2.1  0.0
   J (eV)           for each species LDAUJ =   0.0  0.0  0.0


--------------------------------------------------------------------------------------------------------


 Static calculation
 charge density will be updated during run
 non-spin polarized calculation
 Variant of blocked Davidson
 Davidson routine will perform the subspace rotation
 performe sub-space diagonalisation
    after iterative eigenvector-optimisation
 modified Broyden-mixing scheme, WC =      100.0
 initial mixing is a Kerker type mixing with AMIX =  0.4000 and BMIX =      1.0000
 Hartree-type preconditioning will be used
 using additional bands           52
 reciprocal scheme for non local part
 use partial core corrections
 calculate Harris-corrections to forces 
   (improved forces if not selfconsistent)
 use gradient corrections 
 use of overlap-Matrix (Vanderbilt PP)
 Fermi weights with tetrahedron method with Bloechl corrections


--------------------------------------------------------------------------------------------------------


  energy-cutoff  :      560.00
  volume of cell :       78.60
      direct lattice vectors                 reciprocal lattice vectors
     1.465167127 -2.537743905  0.000000000     0.341257998 -0.197025397  0.000000000
     1.465167127  2.537743905  0.000000000     0.341257998  0.197025397  0.000000000
     0.000000000  0.000000000 10.568949187     0.000000000  0.000000000  0.094616786

  length of vectors
     2.930334253  2.930334253 10.568949187     0.394050794  0.394050794  0.094616786


 
 k-points in units of 2pi/SCALE and weight: KPOINTS File, automatically generated by
   0.00000000  0.00000000  0.00000000       0.001
   0.01895899 -0.01094598  0.00000000       0.003
   0.03791797 -0.02189195  0.00000000       0.003
   0.05687696 -0.03283793  0.00000000       0.003
   0.07583594 -0.04378390  0.00000000       0.003
   0.09479493 -0.05472988  0.00000000       0.003
   0.11375392 -0.06567585  0.00000000       0.003
   0.13271290 -0.07662183  0.00000000       0.003
   0.15167189 -0.08756781  0.00000000       0.003
   0.17063088 -0.09851378  0.00000000       0.002
   0.01895899  0.01094598  0.00000000       0.002
   0.03791797  0.00000000  0.00000000       0.003
   0.05687696 -0.01094598  0.00000000       0.003
   0.07583594 -0.02189195  0.00000000       0.003
   0.09479493 -0.03283793  0.00000000       0.003
   0.11375392 -0.04378390  0.00000000       0.003
   0.13271290 -0.05472988  0.00000000       0.003
   0.15167189 -0.06567585  0.00000000       0.003
   0.17063088 -0.07662183  0.00000000       0.003
   0.18958986 -0.08756781  0.00000000       0.003
  -0.13271290  0.09851378  0.00000000       0.003
  -0.11375392  0.08756781  0.00000000       0.003
  -0.09479493  0.07662183  0.00000000       0.003
  -0.07583594  0.06567585  0.00000000       0.003
  -0.05687696  0.05472988  0.00000000       0.003
  -0.03791797  0.04378390  0.00000000       0.003
  -0.01895899  0.03283793  0.00000000       0.002
   0.03791797  0.02189195  0.00000000       0.002
   0.05687696  0.01094598  0.00000000       0.003
   0.07583594  0.00000000  0.00000000       0.003
   0.09479493 -0.01094598  0.00000000       0.003
   0.11375392 -0.02189195  0.00000000       0.003
   0.13271290 -0.03283793  0.00000000       0.003
   0.15167189 -0.04378390  0.00000000       0.003
   0.17063088 -0.05472988  0.00000000       0.003
   0.18958986 -0.06567585  0.00000000       0.003
   0.20854885 -0.07662183  0.00000000       0.003
  -0.11375392  0.10945976  0.00000000       0.003
  -0.09479493  0.09851378  0.00000000       0.003
  -0.07583594  0.08756781  0.00000000       0.003
  -0.05687696  0.07662183  0.00000000       0.003
  -0.03791797  0.06567585  0.00000000       0.002
   0.05687696  0.03283793  0.00000000       0.002
   0.07583594  0.02189195  0.00000000       0.003
   0.09479493  0.01094598  0.00000000       0.003
   0.11375392  0.00000000  0.00000000       0.003
   0.13271290 -0.01094598  0.00000000       0.003
   0.15167189 -0.02189195  0.00000000       0.003
   0.17063088 -0.03283793  0.00000000       0.003
   0.18958986 -0.04378390  0.00000000       0.003
   0.20854885 -0.05472988  0.00000000       0.003
   0.22750783 -0.06567585  0.00000000       0.003
  -0.09479493  0.12040573  0.00000000       0.003
  -0.07583594  0.10945976  0.00000000       0.003
  -0.05687696  0.09851378  0.00000000       0.002
   0.07583594  0.04378390  0.00000000       0.002
   0.09479493  0.03283793  0.00000000       0.003
   0.11375392  0.02189195  0.00000000       0.003
   0.13271290  0.01094598  0.00000000       0.003
   0.15167189  0.00000000  0.00000000       0.003
   0.17063088 -0.01094598  0.00000000       0.003
   0.18958986 -0.02189195  0.00000000       0.003
   0.20854885 -0.03283793  0.00000000       0.003
   0.22750783 -0.04378390  0.00000000       0.003
   0.24646682 -0.05472988  0.00000000       0.003
  -0.07583594  0.13135171  0.00000000       0.002
   0.09479493  0.05472988  0.00000000       0.002
   0.11375392  0.04378390  0.00000000       0.003
   0.13271290  0.03283793  0.00000000       0.003
   0.15167189  0.02189195  0.00000000       0.003
   0.17063088  0.01094598  0.00000000       0.003
   0.18958986  0.00000000  0.00000000       0.003
   0.20854885 -0.01094598  0.00000000       0.003
   0.22750783 -0.02189195  0.00000000       0.003
   0.24646682 -0.03283793  0.00000000       0.002
   0.11375392  0.06567585  0.00000000       0.002
   0.13271290  0.05472988  0.00000000       0.003
   0.15167189  0.04378390  0.00000000       0.003
   0.17063088  0.03283793  0.00000000       0.003
   0.18958986  0.02189195  0.00000000       0.003
   0.20854885  0.01094598  0.00000000       0.003
   0.22750783  0.00000000  0.00000000       0.002
   0.13271290  0.07662183  0.00000000       0.002
   0.15167189  0.06567585  0.00000000       0.003
   0.17063088  0.05472988  0.00000000       0.003
   0.18958986  0.04378390  0.00000000       0.003
   0.20854885  0.03283793  0.00000000       0.002
   0.15167189  0.08756781  0.00000000       0.002
   0.17063088  0.07662183  0.00000000       0.003
   0.18958986  0.06567585  0.00000000       0.002
   0.17063088  0.09851378  0.00000000       0.001
   0.00000000  0.00000000  0.02365446       0.002
   0.01895899 -0.01094598  0.02365446       0.006
   0.03791797 -0.02189195  0.02365446       0.006
   0.05687696 -0.03283793  0.02365446       0.006
   0.07583594 -0.04378390  0.02365446       0.006
   0.09479493 -0.05472988  0.02365446       0.006
   0.11375392 -0.06567585  0.02365446       0.006
   0.13271290 -0.07662183  0.02365446       0.006
   0.15167189 -0.08756781  0.02365446       0.006
   0.17063088 -0.09851378  0.02365446       0.003
   0.01895899  0.01094598  0.02365446       0.003
   0.03791797  0.00000000  0.02365446       0.006
   0.05687696 -0.01094598  0.02365446       0.006
   0.07583594 -0.02189195  0.02365446       0.006
   0.09479493 -0.03283793  0.02365446       0.006
   0.11375392 -0.04378390  0.02365446       0.006
   0.13271290 -0.05472988  0.02365446       0.006
   0.15167189 -0.06567585  0.02365446       0.006
   0.17063088 -0.07662183  0.02365446       0.006
   0.18958986 -0.08756781  0.02365446       0.006
  -0.13271290  0.09851378  0.02365446       0.006
  -0.11375392  0.08756781  0.02365446       0.006
  -0.09479493  0.07662183  0.02365446       0.006
  -0.07583594  0.06567585  0.02365446       0.006
  -0.05687696  0.05472988  0.02365446       0.006
  -0.03791797  0.04378390  0.02365446       0.006
  -0.01895899  0.03283793  0.02365446       0.003
   0.03791797  0.02189195  0.02365446       0.003
   0.05687696  0.01094598  0.02365446       0.006
   0.07583594  0.00000000  0.02365446       0.006
   0.09479493 -0.01094598  0.02365446       0.006
   0.11375392 -0.02189195  0.02365446       0.006
   0.13271290 -0.03283793  0.02365446       0.006
   0.15167189 -0.04378390  0.02365446       0.006
   0.17063088 -0.05472988  0.02365446       0.006
   0.18958986 -0.06567585  0.02365446       0.006
   0.20854885 -0.07662183  0.02365446       0.006
  -0.11375392  0.10945976  0.02365446       0.006
  -0.09479493  0.09851378  0.02365446       0.006
  -0.07583594  0.08756781  0.02365446       0.006
  -0.05687696  0.07662183  0.02365446       0.006
  -0.03791797  0.06567585  0.02365446       0.003
   0.05687696  0.03283793  0.02365446       0.003
   0.07583594  0.02189195  0.02365446       0.006
   0.09479493  0.01094598  0.02365446       0.006
   0.11375392  0.00000000  0.02365446       0.006
   0.13271290 -0.01094598  0.02365446       0.006
   0.15167189 -0.02189195  0.02365446       0.006
   0.17063088 -0.03283793  0.02365446       0.006
   0.18958986 -0.04378390  0.02365446       0.006
   0.20854885 -0.05472988  0.02365446       0.006
   0.22750783 -0.06567585  0.02365446       0.006
  -0.09479493  0.12040573  0.02365446       0.006
  -0.07583594  0.10945976  0.02365446       0.006
  -0.05687696  0.09851378  0.02365446       0.003
   0.07583594  0.04378390  0.02365446       0.003
   0.09479493  0.03283793  0.02365446       0.006
   0.11375392  0.02189195  0.02365446       0.006
   0.13271290  0.01094598  0.02365446       0.006
   0.15167189  0.00000000  0.02365446       0.006
   0.17063088 -0.01094598  0.02365446       0.006
   0.18958986 -0.02189195  0.02365446       0.006
   0.20854885 -0.03283793  0.02365446       0.006
   0.22750783 -0.04378390  0.02365446       0.006
   0.24646682 -0.05472988  0.02365446       0.006
  -0.07583594  0.13135171  0.02365446       0.003
   0.09479493  0.05472988  0.02365446       0.003
   0.11375392  0.04378390  0.02365446       0.006
   0.13271290  0.03283793  0.02365446       0.006
   0.15167189  0.02189195  0.02365446       0.006
   0.17063088  0.01094598  0.02365446       0.006
   0.18958986  0.00000000  0.02365446       0.006
   0.20854885 -0.01094598  0.02365446       0.006
   0.22750783 -0.02189195  0.02365446       0.006
   0.24646682 -0.03283793  0.02365446       0.003
   0.11375392  0.06567585  0.02365446       0.003
   0.13271290  0.05472988  0.02365446       0.006
   0.15167189  0.04378390  0.02365446       0.006
   0.17063088  0.03283793  0.02365446       0.006
   0.18958986  0.02189195  0.02365446       0.006
   0.20854885  0.01094598  0.02365446       0.006
   0.22750783  0.00000000  0.02365446       0.003
   0.13271290  0.07662183  0.02365446       0.003
   0.15167189  0.06567585  0.02365446       0.006
   0.17063088  0.05472988  0.02365446       0.006
   0.18958986  0.04378390  0.02365446       0.006
   0.20854885  0.03283793  0.02365446       0.003
   0.15167189  0.08756781  0.02365446       0.003
   0.17063088  0.07662183  0.02365446       0.006
   0.18958986  0.06567585  0.02365446       0.003
   0.17063088  0.09851378  0.02365446       0.002
   0.00000000  0.00000000  0.04730891       0.001
   0.01895899 -0.01094598  0.04730891       0.003
   0.03791797 -0.02189195  0.04730891       0.003
   0.05687696 -0.03283793  0.04730891       0.003
   0.07583594 -0.04378390  0.04730891       0.003
   0.09479493 -0.05472988  0.04730891       0.003
   0.11375392 -0.06567585  0.04730891       0.003
   0.13271290 -0.07662183  0.04730891       0.003
   0.15167189 -0.08756781  0.04730891       0.003
   0.17063088 -0.09851378  0.04730891       0.002
   0.01895899  0.01094598  0.04730891       0.002
   0.03791797  0.00000000  0.04730891       0.003
   0.05687696 -0.01094598  0.04730891       0.003
   0.07583594 -0.02189195  0.04730891       0.003
   0.09479493 -0.03283793  0.04730891       0.003
   0.11375392 -0.04378390  0.04730891       0.003
   0.13271290 -0.05472988  0.04730891       0.003
   0.15167189 -0.06567585  0.04730891       0.003
   0.17063088 -0.07662183  0.04730891       0.003
   0.18958986 -0.08756781  0.04730891       0.003
  -0.13271290  0.09851378  0.04730891       0.003
  -0.11375392  0.08756781  0.04730891       0.003
  -0.09479493  0.07662183  0.04730891       0.003
  -0.07583594  0.06567585  0.04730891       0.003
  -0.05687696  0.05472988  0.04730891       0.003
  -0.03791797  0.04378390  0.04730891       0.003
  -0.01895899  0.03283793  0.04730891       0.002
   0.03791797  0.02189195  0.04730891       0.002
   0.05687696  0.01094598  0.04730891       0.003
   0.07583594  0.00000000  0.04730891       0.003
   0.09479493 -0.01094598  0.04730891       0.003
   0.11375392 -0.02189195  0.04730891       0.003
   0.13271290 -0.03283793  0.04730891       0.003
   0.15167189 -0.04378390  0.04730891       0.003
   0.17063088 -0.05472988  0.04730891       0.003
   0.18958986 -0.06567585  0.04730891       0.003
   0.20854885 -0.07662183  0.04730891       0.003
  -0.11375392  0.10945976  0.04730891       0.003
  -0.09479493  0.09851378  0.04730891       0.003
  -0.07583594  0.08756781  0.04730891       0.003
  -0.05687696  0.07662183  0.04730891       0.003
  -0.03791797  0.06567585  0.04730891       0.002
   0.05687696  0.03283793  0.04730891       0.002
   0.07583594  0.02189195  0.04730891       0.003
   0.09479493  0.01094598  0.04730891       0.003
   0.11375392  0.00000000  0.04730891       0.003
   0.13271290 -0.01094598  0.04730891       0.003
   0.15167189 -0.02189195  0.04730891       0.003
   0.17063088 -0.03283793  0.04730891       0.003
   0.18958986 -0.04378390  0.04730891       0.003
   0.20854885 -0.05472988  0.04730891       0.003
   0.22750783 -0.06567585  0.04730891       0.003
  -0.09479493  0.12040573  0.04730891       0.003
  -0.07583594  0.10945976  0.04730891       0.003
  -0.05687696  0.09851378  0.04730891       0.002
   0.07583594  0.04378390  0.04730891       0.002
   0.09479493  0.03283793  0.04730891       0.003
   0.11375392  0.02189195  0.04730891       0.003
   0.13271290  0.01094598  0.04730891       0.003
   0.15167189  0.00000000  0.04730891       0.003
   0.17063088 -0.01094598  0.04730891       0.003
   0.18958986 -0.02189195  0.04730891       0.003
   0.20854885 -0.03283793  0.04730891       0.003
   0.22750783 -0.04378390  0.04730891       0.003
   0.24646682 -0.05472988  0.04730891       0.003
  -0.07583594  0.13135171  0.04730891       0.002
   0.09479493  0.05472988  0.04730891       0.002
   0.11375392  0.04378390  0.04730891       0.003
   0.13271290  0.03283793  0.04730891       0.003
   0.15167189  0.02189195  0.04730891       0.003
   0.17063088  0.01094598  0.04730891       0.003
   0.18958986  0.00000000  0.04730891       0.003
   0.20854885 -0.01094598  0.04730891       0.003
   0.22750783 -0.02189195  0.04730891       0.003
   0.24646682 -0.03283793  0.04730891       0.002
   0.11375392  0.06567585  0.04730891       0.002
   0.13271290  0.05472988  0.04730891       0.003
   0.15167189  0.04378390  0.04730891       0.003
   0.17063088  0.03283793  0.04730891       0.003
   0.18958986  0.02189195  0.04730891       0.003
   0.20854885  0.01094598  0.04730891       0.003
   0.22750783  0.00000000  0.04730891       0.002
   0.13271290  0.07662183  0.04730891       0.002
   0.15167189  0.06567585  0.04730891       0.003
   0.17063088  0.05472988  0.04730891       0.003
   0.18958986  0.04378390  0.04730891       0.003
   0.20854885  0.03283793  0.04730891       0.002
   0.15167189  0.08756781  0.04730891       0.002
   0.17063088  0.07662183  0.04730891       0.003
   0.18958986  0.06567585  0.04730891       0.002
   0.17063088  0.09851378  0.04730891       0.001
 
 k-points in reciprocal lattice and weights: KPOINTS File, automatically generated by
   0.00000000  0.00000000  0.00000000       0.001
   0.05555556  0.00000000  0.00000000       0.003
   0.11111111  0.00000000  0.00000000       0.003
   0.16666667  0.00000000  0.00000000       0.003
   0.22222222  0.00000000  0.00000000       0.003
   0.27777778  0.00000000  0.00000000       0.003
   0.33333333  0.00000000  0.00000000       0.003
   0.38888889  0.00000000  0.00000000       0.003
   0.44444444  0.00000000  0.00000000       0.003
   0.50000000  0.00000000  0.00000000       0.002
   0.00000000  0.05555556  0.00000000       0.002
   0.05555556  0.05555556  0.00000000       0.003
   0.11111111  0.05555556  0.00000000       0.003
   0.16666667  0.05555556  0.00000000       0.003
   0.22222222  0.05555556  0.00000000       0.003
   0.27777778  0.05555556  0.00000000       0.003
   0.33333333  0.05555556  0.00000000       0.003
   0.38888889  0.05555556  0.00000000       0.003
   0.44444444  0.05555556  0.00000000       0.003
   0.50000000  0.05555556  0.00000000       0.003
  -0.44444444  0.05555556  0.00000000       0.003
  -0.38888889  0.05555556  0.00000000       0.003
  -0.33333333  0.05555556  0.00000000       0.003
  -0.27777778  0.05555556  0.00000000       0.003
  -0.22222222  0.05555556  0.00000000       0.003
  -0.16666667  0.05555556  0.00000000       0.003
  -0.11111111  0.05555556  0.00000000       0.002
   0.00000000  0.11111111  0.00000000       0.002
   0.05555556  0.11111111  0.00000000       0.003
   0.11111111  0.11111111  0.00000000       0.003
   0.16666667  0.11111111  0.00000000       0.003
   0.22222222  0.11111111  0.00000000       0.003
   0.27777778  0.11111111  0.00000000       0.003
   0.33333333  0.11111111  0.00000000       0.003
   0.38888889  0.11111111  0.00000000       0.003
   0.44444444  0.11111111  0.00000000       0.003
   0.50000000  0.11111111  0.00000000       0.003
  -0.44444444  0.11111111  0.00000000       0.003
  -0.38888889  0.11111111  0.00000000       0.003
  -0.33333333  0.11111111  0.00000000       0.003
  -0.27777778  0.11111111  0.00000000       0.003
  -0.22222222  0.11111111  0.00000000       0.002
   0.00000000  0.16666667  0.00000000       0.002
   0.05555556  0.16666667  0.00000000       0.003
   0.11111111  0.16666667  0.00000000       0.003
   0.16666667  0.16666667  0.00000000       0.003
   0.22222222  0.16666667  0.00000000       0.003
   0.27777778  0.16666667  0.00000000       0.003
   0.33333333  0.16666667  0.00000000       0.003
   0.38888889  0.16666667  0.00000000       0.003
   0.44444444  0.16666667  0.00000000       0.003
   0.50000000  0.16666667  0.00000000       0.003
  -0.44444444  0.16666667  0.00000000       0.003
  -0.38888889  0.16666667  0.00000000       0.003
  -0.33333333  0.16666667  0.00000000       0.002
   0.00000000  0.22222222  0.00000000       0.002
   0.05555556  0.22222222  0.00000000       0.003
   0.11111111  0.22222222  0.00000000       0.003
   0.16666667  0.22222222  0.00000000       0.003
   0.22222222  0.22222222  0.00000000       0.003
   0.27777778  0.22222222  0.00000000       0.003
   0.33333333  0.22222222  0.00000000       0.003
   0.38888889  0.22222222  0.00000000       0.003
   0.44444444  0.22222222  0.00000000       0.003
   0.50000000  0.22222222  0.00000000       0.003
  -0.44444444  0.22222222  0.00000000       0.002
   0.00000000  0.27777778  0.00000000       0.002
   0.05555556  0.27777778  0.00000000       0.003
   0.11111111  0.27777778  0.00000000       0.003
   0.16666667  0.27777778  0.00000000       0.003
   0.22222222  0.27777778  0.00000000       0.003
   0.27777778  0.27777778  0.00000000       0.003
   0.33333333  0.27777778  0.00000000       0.003
   0.38888889  0.27777778  0.00000000       0.003
   0.44444444  0.27777778  0.00000000       0.002
   0.00000000  0.33333333  0.00000000       0.002
   0.05555556  0.33333333  0.00000000       0.003
   0.11111111  0.33333333  0.00000000       0.003
   0.16666667  0.33333333  0.00000000       0.003
   0.22222222  0.33333333  0.00000000       0.003
   0.27777778  0.33333333  0.00000000       0.003
   0.33333333  0.33333333  0.00000000       0.002
   0.00000000  0.38888889  0.00000000       0.002
   0.05555556  0.38888889  0.00000000       0.003
   0.11111111  0.38888889  0.00000000       0.003
   0.16666667  0.38888889  0.00000000       0.003
   0.22222222  0.38888889  0.00000000       0.002
   0.00000000  0.44444444  0.00000000       0.002
   0.05555556  0.44444444  0.00000000       0.003
   0.11111111  0.44444444  0.00000000       0.002
   0.00000000  0.50000000  0.00000000       0.001
   0.00000000  0.00000000  0.25000000       0.002
   0.05555556  0.00000000  0.25000000       0.006
   0.11111111  0.00000000  0.25000000       0.006
   0.16666667  0.00000000  0.25000000       0.006
   0.22222222  0.00000000  0.25000000       0.006
   0.27777778  0.00000000  0.25000000       0.006
   0.33333333  0.00000000  0.25000000       0.006
   0.38888889  0.00000000  0.25000000       0.006
   0.44444444  0.00000000  0.25000000       0.006
   0.50000000  0.00000000  0.25000000       0.003
   0.00000000  0.05555556  0.25000000       0.003
   0.05555556  0.05555556  0.25000000       0.006
   0.11111111  0.05555556  0.25000000       0.006
   0.16666667  0.05555556  0.25000000       0.006
   0.22222222  0.05555556  0.25000000       0.006
   0.27777778  0.05555556  0.25000000       0.006
   0.33333333  0.05555556  0.25000000       0.006
   0.38888889  0.05555556  0.25000000       0.006
   0.44444444  0.05555556  0.25000000       0.006
   0.50000000  0.05555556  0.25000000       0.006
  -0.44444444  0.05555556  0.25000000       0.006
  -0.38888889  0.05555556  0.25000000       0.006
  -0.33333333  0.05555556  0.25000000       0.006
  -0.27777778  0.05555556  0.25000000       0.006
  -0.22222222  0.05555556  0.25000000       0.006
  -0.16666667  0.05555556  0.25000000       0.006
  -0.11111111  0.05555556  0.25000000       0.003
   0.00000000  0.11111111  0.25000000       0.003
   0.05555556  0.11111111  0.25000000       0.006
   0.11111111  0.11111111  0.25000000       0.006
   0.16666667  0.11111111  0.25000000       0.006
   0.22222222  0.11111111  0.25000000       0.006
   0.27777778  0.11111111  0.25000000       0.006
   0.33333333  0.11111111  0.25000000       0.006
   0.38888889  0.11111111  0.25000000       0.006
   0.44444444  0.11111111  0.25000000       0.006
   0.50000000  0.11111111  0.25000000       0.006
  -0.44444444  0.11111111  0.25000000       0.006
  -0.38888889  0.11111111  0.25000000       0.006
  -0.33333333  0.11111111  0.25000000       0.006
  -0.27777778  0.11111111  0.25000000       0.006
  -0.22222222  0.11111111  0.25000000       0.003
   0.00000000  0.16666667  0.25000000       0.003
   0.05555556  0.16666667  0.25000000       0.006
   0.11111111  0.16666667  0.25000000       0.006
   0.16666667  0.16666667  0.25000000       0.006
   0.22222222  0.16666667  0.25000000       0.006
   0.27777778  0.16666667  0.25000000       0.006
   0.33333333  0.16666667  0.25000000       0.006
   0.38888889  0.16666667  0.25000000       0.006
   0.44444444  0.16666667  0.25000000       0.006
   0.50000000  0.16666667  0.25000000       0.006
  -0.44444444  0.16666667  0.25000000       0.006
  -0.38888889  0.16666667  0.25000000       0.006
  -0.33333333  0.16666667  0.25000000       0.003
   0.00000000  0.22222222  0.25000000       0.003
   0.05555556  0.22222222  0.25000000       0.006
   0.11111111  0.22222222  0.25000000       0.006
   0.16666667  0.22222222  0.25000000       0.006
   0.22222222  0.22222222  0.25000000       0.006
   0.27777778  0.22222222  0.25000000       0.006
   0.33333333  0.22222222  0.25000000       0.006
   0.38888889  0.22222222  0.25000000       0.006
   0.44444444  0.22222222  0.25000000       0.006
   0.50000000  0.22222222  0.25000000       0.006
  -0.44444444  0.22222222  0.25000000       0.003
   0.00000000  0.27777778  0.25000000       0.003
   0.05555556  0.27777778  0.25000000       0.006
   0.11111111  0.27777778  0.25000000       0.006
   0.16666667  0.27777778  0.25000000       0.006
   0.22222222  0.27777778  0.25000000       0.006
   0.27777778  0.27777778  0.25000000       0.006
   0.33333333  0.27777778  0.25000000       0.006
   0.38888889  0.27777778  0.25000000       0.006
   0.44444444  0.27777778  0.25000000       0.003
   0.00000000  0.33333333  0.25000000       0.003
   0.05555556  0.33333333  0.25000000       0.006
   0.11111111  0.33333333  0.25000000       0.006
   0.16666667  0.33333333  0.25000000       0.006
   0.22222222  0.33333333  0.25000000       0.006
   0.27777778  0.33333333  0.25000000       0.006
   0.33333333  0.33333333  0.25000000       0.003
   0.00000000  0.38888889  0.25000000       0.003
   0.05555556  0.38888889  0.25000000       0.006
   0.11111111  0.38888889  0.25000000       0.006
   0.16666667  0.38888889  0.25000000       0.006
   0.22222222  0.38888889  0.25000000       0.003
   0.00000000  0.44444444  0.25000000       0.003
   0.05555556  0.44444444  0.25000000       0.006
   0.11111111  0.44444444  0.25000000       0.003
   0.00000000  0.50000000  0.25000000       0.002
   0.00000000  0.00000000  0.50000000       0.001
   0.05555556  0.00000000  0.50000000       0.003
   0.11111111  0.00000000  0.50000000       0.003
   0.16666667  0.00000000  0.50000000       0.003
   0.22222222  0.00000000  0.50000000       0.003
   0.27777778  0.00000000  0.50000000       0.003
   0.33333333  0.00000000  0.50000000       0.003
   0.38888889  0.00000000  0.50000000       0.003
   0.44444444  0.00000000  0.50000000       0.003
   0.50000000  0.00000000  0.50000000       0.002
   0.00000000  0.05555556  0.50000000       0.002
   0.05555556  0.05555556  0.50000000       0.003
   0.11111111  0.05555556  0.50000000       0.003
   0.16666667  0.05555556  0.50000000       0.003
   0.22222222  0.05555556  0.50000000       0.003
   0.27777778  0.05555556  0.50000000       0.003
   0.33333333  0.05555556  0.50000000       0.003
   0.38888889  0.05555556  0.50000000       0.003
   0.44444444  0.05555556  0.50000000       0.003
   0.50000000  0.05555556  0.50000000       0.003
  -0.44444444  0.05555556  0.50000000       0.003
  -0.38888889  0.05555556  0.50000000       0.003
  -0.33333333  0.05555556  0.50000000       0.003
  -0.27777778  0.05555556  0.50000000       0.003
  -0.22222222  0.05555556  0.50000000       0.003
  -0.16666667  0.05555556  0.50000000       0.003
  -0.11111111  0.05555556  0.50000000       0.002
   0.00000000  0.11111111  0.50000000       0.002
   0.05555556  0.11111111  0.50000000       0.003
   0.11111111  0.11111111  0.50000000       0.003
   0.16666667  0.11111111  0.50000000       0.003
   0.22222222  0.11111111  0.50000000       0.003
   0.27777778  0.11111111  0.50000000       0.003
   0.33333333  0.11111111  0.50000000       0.003
   0.38888889  0.11111111  0.50000000       0.003
   0.44444444  0.11111111  0.50000000       0.003
   0.50000000  0.11111111  0.50000000       0.003
  -0.44444444  0.11111111  0.50000000       0.003
  -0.38888889  0.11111111  0.50000000       0.003
  -0.33333333  0.11111111  0.50000000       0.003
  -0.27777778  0.11111111  0.50000000       0.003
  -0.22222222  0.11111111  0.50000000       0.002
   0.00000000  0.16666667  0.50000000       0.002
   0.05555556  0.16666667  0.50000000       0.003
   0.11111111  0.16666667  0.50000000       0.003
   0.16666667  0.16666667  0.50000000       0.003
   0.22222222  0.16666667  0.50000000       0.003
   0.27777778  0.16666667  0.50000000       0.003
   0.33333333  0.16666667  0.50000000       0.003
   0.38888889  0.16666667  0.50000000       0.003
   0.44444444  0.16666667  0.50000000       0.003
   0.50000000  0.16666667  0.50000000       0.003
  -0.44444444  0.16666667  0.50000000       0.003
  -0.38888889  0.16666667  0.50000000       0.003
  -0.33333333  0.16666667  0.50000000       0.002
   0.00000000  0.22222222  0.50000000       0.002
   0.05555556  0.22222222  0.50000000       0.003
   0.11111111  0.22222222  0.50000000       0.003
   0.16666667  0.22222222  0.50000000       0.003
   0.22222222  0.22222222  0.50000000       0.003
   0.27777778  0.22222222  0.50000000       0.003
   0.33333333  0.22222222  0.50000000       0.003
   0.38888889  0.22222222  0.50000000       0.003
   0.44444444  0.22222222  0.50000000       0.003
   0.50000000  0.22222222  0.50000000       0.003
  -0.44444444  0.22222222  0.50000000       0.002
   0.00000000  0.27777778  0.50000000       0.002
   0.05555556  0.27777778  0.50000000       0.003
   0.11111111  0.27777778  0.50000000       0.003
   0.16666667  0.27777778  0.50000000       0.003
   0.22222222  0.27777778  0.50000000       0.003
   0.27777778  0.27777778  0.50000000       0.003
   0.33333333  0.27777778  0.50000000       0.003
   0.38888889  0.27777778  0.50000000       0.003
   0.44444444  0.27777778  0.50000000       0.002
   0.00000000  0.33333333  0.50000000       0.002
   0.05555556  0.33333333  0.50000000       0.003
   0.11111111  0.33333333  0.50000000       0.003
   0.16666667  0.33333333  0.50000000       0.003
   0.22222222  0.33333333  0.50000000       0.003
   0.27777778  0.33333333  0.50000000       0.003
   0.33333333  0.33333333  0.50000000       0.002
   0.00000000  0.38888889  0.50000000       0.002
   0.05555556  0.38888889  0.50000000       0.003
   0.11111111  0.38888889  0.50000000       0.003
   0.16666667  0.38888889  0.50000000       0.003
   0.22222222  0.38888889  0.50000000       0.002
   0.00000000  0.44444444  0.50000000       0.002
   0.05555556  0.44444444  0.50000000       0.003
   0.11111111  0.44444444  0.50000000       0.002
   0.00000000  0.50000000  0.50000000       0.001
 
 position of ions in fractional coordinates (direct lattice) 
   0.00000000  0.00000000  0.00000000
   0.00000000  0.00000000  0.50000000
   0.66659041  0.33318083  0.75000000
   0.33340959  0.66681917  0.25000000
   0.66664307  0.33328614  0.12371890
   0.33335693  0.66671386  0.62371890
   0.33335693  0.66671386  0.87628110
   0.66664307  0.33328614  0.37628110
 
 position of ions in cartesian coordinates  (Angst):
   0.00000000  0.00000000  0.00000000
   0.00000000  0.00000000  5.28447459
   1.46483196 -0.84610814  7.92671189
   1.46550229  0.84610814  2.64223730
   1.46506340 -0.84597452  1.30757876
   1.46527085  0.84597452  6.59205335
   1.46527085  0.84597452  9.26137043
   1.46506340 -0.84597452  3.97689583
 


--------------------------------------------------------------------------------------------------------


 k-point  1 :  0.00000.00000.0000  plane waves:   2393
 k-point  2 :  0.05560.00000.0000  plane waves:   2375
 k-point  3 :  0.11110.00000.0000  plane waves:   2378
 k-point  4 :  0.16670.00000.0000  plane waves:   2380
 k-point  5 :  0.22220.00000.0000  plane waves:   2386
 k-point  6 :  0.27780.00000.0000  plane waves:   2368
 k-point  7 :  0.33330.00000.0000  plane waves:   2370
 k-point  8 :  0.38890.00000.0000  plane waves:   2368
 k-point  9 :  0.44440.00000.0000  plane waves:   2372
 k-point 10 :  0.50000.00000.0000  plane waves:   2360
 k-point 11 :  0.00000.05560.0000  plane waves:   2375
 k-point 12 :  0.05560.05560.0000  plane waves:   2375
 k-point 13 :  0.11110.05560.0000  plane waves:   2379
 k-point 14 :  0.16670.05560.0000  plane waves:   2369
 k-point 15 :  0.22220.05560.0000  plane waves:   2377
 k-point 16 :  0.27780.05560.0000  plane waves:   2363
 k-point 17 :  0.33330.05560.0000  plane waves:   2367
 k-point 18 :  0.38890.05560.0000  plane waves:   2362
 k-point 19 :  0.44440.05560.0000  plane waves:   2375
 k-point 20 :  0.50000.05560.0000  plane waves:   2375
 k-point 21 :  -.44440.05560.0000  plane waves:   2362
 k-point 22 :  -.38890.05560.0000  plane waves:   2367
 k-point 23 :  -.33330.05560.0000  plane waves:   2363
 k-point 24 :  -.27780.05560.0000  plane waves:   2377
 k-point 25 :  -.22220.05560.0000  plane waves:   2369
 k-point 26 :  -.16670.05560.0000  plane waves:   2379
 k-point 27 :  -.11110.05560.0000  plane waves:   2375
 k-point 28 :  0.00000.11110.0000  plane waves:   2378
 k-point 29 :  0.05560.11110.0000  plane waves:   2379
 k-point 30 :  0.11110.11110.0000  plane waves:   2365
 k-point 31 :  0.16670.11110.0000  plane waves:   2363
 k-point 32 :  0.22220.11110.0000  plane waves:   2369
 k-point 33 :  0.27780.11110.0000  plane waves:   2365
 k-point 34 :  0.33330.11110.0000  plane waves:   2352
 k-point 35 :  0.38890.11110.0000  plane waves:   2362
 k-point 36 :  0.44440.11110.0000  plane waves:   2376
 k-point 37 :  0.50000.11110.0000  plane waves:   2362
 k-point 38 :  -.44440.11110.0000  plane waves:   2352
 k-point 39 :  -.38890.11110.0000  plane waves:   2365
 k-point 40 :  -.33330.11110.0000  plane waves:   2369
 k-point 41 :  -.27780.11110.0000  plane waves:   2363
 k-point 42 :  -.22220.11110.0000  plane waves:   2365
 k-point 43 :  0.00000.16670.0000  plane waves:   2380
 k-point 44 :  0.05560.16670.0000  plane waves:   2369
 k-point 45 :  0.11110.16670.0000  plane waves:   2363
 k-point 46 :  0.16670.16670.0000  plane waves:   2369
 k-point 47 :  0.22220.16670.0000  plane waves:   2359
 k-point 48 :  0.27780.16670.0000  plane waves:   2353
 k-point 49 :  0.33330.16670.0000  plane waves:   2355
 k-point 50 :  0.38890.16670.0000  plane waves:   2362
 k-point 51 :  0.44440.16670.0000  plane waves:   2362
 k-point 52 :  0.50000.16670.0000  plane waves:   2355
 k-point 53 :  -.44440.16670.0000  plane waves:   2353
 k-point 54 :  -.38890.16670.0000  plane waves:   2359
 k-point 55 :  -.33330.16670.0000  plane waves:   2369
 k-point 56 :  0.00000.22220.0000  plane waves:   2386
 k-point 57 :  0.05560.22220.0000  plane waves:   2377
 k-point 58 :  0.11110.22220.0000  plane waves:   2369
 k-point 59 :  0.16670.22220.0000  plane waves:   2359
 k-point 60 :  0.22220.22220.0000  plane waves:   2360
 k-point 61 :  0.27780.22220.0000  plane waves:   2364
 k-point 62 :  0.33330.22220.0000  plane waves:   2352
 k-point 63 :  0.38890.22220.0000  plane waves:   2362
 k-point 64 :  0.44440.22220.0000  plane waves:   2352
 k-point 65 :  0.50000.22220.0000  plane waves:   2364
 k-point 66 :  -.44440.22220.0000  plane waves:   2360
 k-point 67 :  0.00000.27780.0000  plane waves:   2368
 k-point 68 :  0.05560.27780.0000  plane waves:   2363
 k-point 69 :  0.11110.27780.0000  plane waves:   2365
 k-point 70 :  0.16670.27780.0000  plane waves:   2353
 k-point 71 :  0.22220.27780.0000  plane waves:   2364
 k-point 72 :  0.27780.27780.0000  plane waves:   2362
 k-point 73 :  0.33330.27780.0000  plane waves:   2356
 k-point 74 :  0.38890.27780.0000  plane waves:   2356
 k-point 75 :  0.44440.27780.0000  plane waves:   2362
 k-point 76 :  0.00000.33330.0000  plane waves:   2370
 k-point 77 :  0.05560.33330.0000  plane waves:   2367
 k-point 78 :  0.11110.33330.0000  plane waves:   2352
 k-point 79 :  0.16670.33330.0000  plane waves:   2355
 k-point 80 :  0.22220.33330.0000  plane waves:   2352
 k-point 81 :  0.27780.33330.0000  plane waves:   2356
 k-point 82 :  0.33330.33330.0000  plane waves:   2334
 k-point 83 :  0.00000.38890.0000  plane waves:   2368
 k-point 84 :  0.05560.38890.0000  plane waves:   2362
 k-point 85 :  0.11110.38890.0000  plane waves:   2362
 k-point 86 :  0.16670.38890.0000  plane waves:   2362
 k-point 87 :  0.22220.38890.0000  plane waves:   2362
 k-point 88 :  0.00000.44440.0000  plane waves:   2372
 k-point 89 :  0.05560.44440.0000  plane waves:   2375
 k-point 90 :  0.11110.44440.0000  plane waves:   2376
 k-point 91 :  0.00000.50000.0000  plane waves:   2360
 k-point 92 :  0.00000.00000.2500  plane waves:   2381
 k-point 93 :  0.05560.00000.2500  plane waves:   2375
 k-point 94 :  0.11110.00000.2500  plane waves:   2383
 k-point 95 :  0.16670.00000.2500  plane waves:   2381
 k-point 96 :  0.22220.00000.2500  plane waves:   2373
 k-point 97 :  0.27780.00000.2500  plane waves:   2376
 k-point 98 :  0.33330.00000.2500  plane waves:   2354
 k-point 99 :  0.38890.00000.2500  plane waves:   2371
 k-point ** :  0.44440.00000.2500  plane waves:   2365
 k-point ** :  0.50000.00000.2500  plane waves:   2368
 k-point ** :  0.00000.05560.2500  plane waves:   2375
 k-point ** :  0.05560.05560.2500  plane waves:   2377
 k-point ** :  0.11110.05560.2500  plane waves:   2380
 k-point ** :  0.16670.05560.2500  plane waves:   2380
 k-point ** :  0.22220.05560.2500  plane waves:   2372
 k-point ** :  0.27780.05560.2500  plane waves:   2367
 k-point ** :  0.33330.05560.2500  plane waves:   2361
 k-point ** :  0.38890.05560.2500  plane waves:   2366
 k-point ** :  0.44440.05560.2500  plane waves:   2368
 k-point ** :  0.50000.05560.2500  plane waves:   2368
 k-point ** :  -.44440.05560.2500  plane waves:   2366
 k-point ** :  -.38890.05560.2500  plane waves:   2361
 k-point ** :  -.33330.05560.2500  plane waves:   2367
 k-point ** :  -.27780.05560.2500  plane waves:   2372
 k-point ** :  -.22220.05560.2500  plane waves:   2380
 k-point ** :  -.16670.05560.2500  plane waves:   2380
 k-point ** :  -.11110.05560.2500  plane waves:   2377
 k-point ** :  0.00000.11110.2500  plane waves:   2383
 k-point ** :  0.05560.11110.2500  plane waves:   2380
 k-point ** :  0.11110.11110.2500  plane waves:   2377
 k-point ** :  0.16670.11110.2500  plane waves:   2379
 k-point ** :  0.22220.11110.2500  plane waves:   2366
 k-point ** :  0.27780.11110.2500  plane waves:   2354
 k-point ** :  0.33330.11110.2500  plane waves:   2353
 k-point ** :  0.38890.11110.2500  plane waves:   2363
 k-point ** :  0.44440.11110.2500  plane waves:   2372
 k-point ** :  0.50000.11110.2500  plane waves:   2363
 k-point ** :  -.44440.11110.2500  plane waves:   2353
 k-point ** :  -.38890.11110.2500  plane waves:   2354
 k-point ** :  -.33330.11110.2500  plane waves:   2366
 k-point ** :  -.27780.11110.2500  plane waves:   2379
 k-point ** :  -.22220.11110.2500  plane waves:   2377
[...]
     78      42.1938      0.00000
     79      42.8496      0.00000
     80      42.8722      0.00000

 k-point 270 :       0.0000    0.4444    0.5000
  band No.  band energies     occupation 
      1     -47.6803      2.00000
      2     -47.6803      2.00000
      3     -37.4419      2.00000
      4     -37.4419      2.00000
      5     -24.5137      2.00000
      6     -24.5137      2.00000
      7     -23.8181      2.00000
      8     -23.8181      2.00000
      9     -23.5558      2.00000
     10     -23.5558      2.00000
     11     -10.9602      2.00000
     12     -10.9602      2.00000
     13     -10.7492      2.00000
     14     -10.7492      2.00000
     15       1.0252      2.00000
     16       1.0252      2.00000
     17       1.6339      2.00000
     18       1.6339      2.00000
     19       2.4877      2.00000
     20       2.4877      2.00000
     21       2.9826      2.00000
     22       2.9826      2.00000
     23       4.0346      2.00000
     24       4.0346      2.00000
     25       4.2715      2.00000
     26       4.2715      2.00000
     27       7.2805      2.00000
     28       7.2805      2.00000
     29      11.4458      0.00000
     30      11.4458      0.00000
     31      11.8247      0.00000
     32      11.8247      0.00000
     33      12.4925      0.00000
     34      12.4925      0.00000
     35      13.0824      0.00000
     36      13.0824      0.00000
     37      15.7491      0.00000
     38      15.7491      0.00000
     39      18.3370      0.00000
     40      18.3370      0.00000
     41      19.2711      0.00000
     42      19.2711      0.00000
     43      19.7424      0.00000
     44      19.7424      0.00000
     45      20.4589      0.00000
     46      20.4589      0.00000
     47      21.7686      0.00000
     48      21.7686      0.00000
     49      23.5419      0.00000
     50      23.5419      0.00000
     51      25.4868      0.00000
     52      25.4868      0.00000
     53      25.6476      0.00000
     54      25.6476      0.00000
     55      28.2092      0.00000
     56      28.2092      0.00000
     57      32.1072      0.00000
     58      32.1072      0.00000
     59      33.0063      0.00000
     60      33.0063      0.00000
     61      34.0241      0.00000
     62      34.0241      0.00000
     63      35.2874      0.00000
     64      35.2874      0.00000
     65      36.3767      0.00000
     66      36.3767      0.00000
     67      36.7582      0.00000
     68      36.7582      0.00000
     69      37.6406      0.00000
     70      37.6406      0.00000
     71      39.0942      0.00000
     72      39.0942      0.00000
     73      39.9322      0.00000
     74      39.9322      0.00000
     75      41.1564      0.00000
     76      41.1564      0.00000
     77      41.6746      0.00000
     78      41.6760      0.00000
     79      42.6172      0.00000
     80      42.6190      0.00000

 k-point 271 :       0.0556    0.4444    0.5000
  band No.  band energies     occupation 
      1     -47.6751      2.00000
      2     -47.6751      2.00000
      3     -37.4411      2.00000
      4     -37.4411      2.00000
      5     -24.5286      2.00000
      6     -24.5286      2.00000
      7     -23.8077      2.00000
      8     -23.8077      2.00000
      9     -23.5867      2.00000
     10     -23.5867      2.00000
     11     -10.9628      2.00000
     12     -10.9628      2.00000
     13     -10.7208      2.00000
     14     -10.7208      2.00000
     15       1.0678      2.00000
     16       1.0678      2.00000
     17       1.5793      2.00000
     18       1.5793      2.00000
     19       2.3793      2.00000
     20       2.3793      2.00000
     21       3.0270      2.00000
     22       3.0270      2.00000
     23       4.0023      2.00000
     24       4.0023      2.00000
     25       4.2373      2.00000
     26       4.2373      2.00000
     27       7.3241      2.00000
     28       7.3241      2.00000
     29      11.5194      0.00000
     30      11.5194      0.00000
     31      11.7853      0.00000
     32      11.7853      0.00000
     33      12.6080      0.00000
     34      12.6080      0.00000
     35      13.0812      0.00000
     36      13.0812      0.00000
     37      15.9604      0.00000
     38      15.9604      0.00000
     39      18.5209      0.00000
     40      18.5209      0.00000
     41      19.1802      0.00000
     42      19.1802      0.00000
     43      19.6563      0.00000
     44      19.6563      0.00000
     45      20.2772      0.00000
     46      20.2772      0.00000
     47      21.7614      0.00000
     48      21.7614      0.00000
     49      23.5156      0.00000
     50      23.5156      0.00000
     51      25.2263      0.00000
     52      25.2263      0.00000
     53      25.7731      0.00000
     54      25.7731      0.00000
     55      28.2484      0.00000
     56      28.2484      0.00000
     57      31.8835      0.00000
     58      31.8835      0.00000
     59      33.4348      0.00000
     60      33.4348      0.00000
     61      34.0031      0.00000
     62      34.0031      0.00000
     63      35.2979      0.00000
     64      35.2979      0.00000
     65      36.2776      0.00000
     66      36.2776      0.00000
     67      37.0632      0.00000
     68      37.0632      0.00000
     69      37.7913      0.00000
     70      37.7913      0.00000
     71      39.1180      0.00000
     72      39.1180      0.00000
     73      39.6519      0.00000
     74      39.6519      0.00000
     75      41.1489      0.00000
     76      41.1489      0.00000
     77      41.9008      0.00000
     78      41.9018      0.00000
     79      42.3436      0.00000
     80      42.3445      0.00000

 k-point 272 :       0.1111    0.4444    0.5000
  band No.  band energies     occupation 
      1     -47.6702      2.00000
      2     -47.6702      2.00000
      3     -37.4405      2.00000
      4     -37.4405      2.00000
      5     -24.5037      2.00000
      6     -24.5037      2.00000
      7     -23.7981      2.00000
      8     -23.7981      2.00000
      9     -23.6605      2.00000
     10     -23.6605      2.00000
     11     -10.9619      2.00000
     12     -10.9619      2.00000
     13     -10.6888      2.00000
     14     -10.6888      2.00000
     15       1.2182      2.00000
     16       1.2182      2.00000
     17       1.5066      2.00000
     18       1.5066      2.00000
     19       2.2407      2.00000
     20       2.2407      2.00000
     21       3.1545      2.00000
     22       3.1545      2.00000
     23       3.8799      2.00000
     24       3.8799      2.00000
     25       4.1540      2.00000
     26       4.1540      2.00000
     27       7.3912      2.00000
     28       7.3912      2.00000
     29      11.5294      0.00000
     30      11.5294      0.00000
     31      11.7124      0.00000
     32      11.7124      0.00000
     33      12.6352      0.00000
     34      12.6352      0.00000
     35      13.0239      0.00000
     36      13.0239      0.00000
     37      16.2690      0.00000
     38      16.2690      0.00000
     39      18.6309      0.00000
     40      18.6309      0.00000
     41      19.0834      0.00000
     42      19.0834      0.00000
     43      19.7161      0.00000
     44      19.7161      0.00000
     45      20.1499      0.00000
     46      20.1499      0.00000
     47      21.7419      0.00000
     48      21.7419      0.00000
     49      23.7865      0.00000
     50      23.7865      0.00000
     51      24.9791      0.00000
     52      24.9791      0.00000
     53      26.0206      0.00000
     54      26.0206      0.00000
     55      28.3617      0.00000
     56      28.3617      0.00000
     57      31.2338      0.00000
     58      31.2338      0.00000
     59      33.7416      0.00000
     60      33.7416      0.00000
     61      33.8193      0.00000
     62      33.8193      0.00000
     63      35.3580      0.00000
     64      35.3580      0.00000
     65      35.8401      0.00000
     66      35.8401      0.00000
     67      36.9986      0.00000
     68      36.9986      0.00000
     69      38.0871      0.00000
     70      38.0871      0.00000
     71      38.9617      0.00000
     72      38.9617      0.00000
     73      40.0206      0.00000
     74      40.0206      0.00000
     75      41.0391      0.00000
     76      41.0391      0.00000
     77      41.7779      0.00000
     78      41.7779      0.00000
     79      42.6131      0.00000
     80      42.6152      0.00000

 k-point 273 :       0.0000    0.5000    0.5000
  band No.  band energies     occupation 
      1     -47.6750      2.00000
      2     -47.6750      2.00000
      3     -37.4412      2.00000
      4     -37.4412      2.00000
      5     -24.5484      2.00000
      6     -24.5484      2.00000
      7     -23.8076      2.00000
      8     -23.8076      2.00000
      9     -23.5635      2.00000
     10     -23.5635      2.00000
     11     -10.9654      2.00000
     12     -10.9654      2.00000
     13     -10.7232      2.00000
     14     -10.7232      2.00000
     15       1.0123      2.00000
     16       1.0123      2.00000
     17       1.5780      2.00000
     18       1.5780      2.00000
     19       2.4483      2.00000
     20       2.4483      2.00000
     21       2.9515      2.00000
     22       2.9515      2.00000
     23       4.0188      2.00000
     24       4.0188      2.00000
     25       4.2858      2.00000
     26       4.2858      2.00000
     27       7.3179      2.00000
     28       7.3179      2.00000
     29      11.4760      0.00000
     30      11.4760      0.00000
     31      11.8999      0.00000
     32      11.8999      0.00000
     33      12.6337      0.00000
     34      12.6337      0.00000
     35      13.1152      0.00000
     36      13.1152      0.00000
     37      15.8825      0.00000
     38      15.8825      0.00000
     39      18.5168      0.00000
     40      18.5168      0.00000
     41      19.2570      0.00000
     42      19.2570      0.00000
     43      19.5695      0.00000
     44      19.5695      0.00000
     45      20.2934      0.00000
     46      20.2934      0.00000
     47      21.7085      0.00000
     48      21.7085      0.00000
     49      23.3685      0.00000
     50      23.3685      0.00000
     51      25.4023      0.00000
     52      25.4023      0.00000
     53      25.5317      0.00000
     54      25.5317      0.00000
     55      28.2024      0.00000
     56      28.2024      0.00000
     57      32.3556      0.00000
     58      32.3556      0.00000
     59      33.1830      0.00000
     60      33.1830      0.00000
     61      34.0331      0.00000
     62      34.0331      0.00000
     63      35.5437      0.00000
     64      35.5437      0.00000
     65      36.4127      0.00000
     66      36.4127      0.00000
     67      37.3137      0.00000
     68      37.3137      0.00000
     69      37.4573      0.00000
     70      37.4573      0.00000
     71      38.9231      0.00000
     72      38.9231      0.00000
     73      39.8167      0.00000
     74      39.8167      0.00000
     75      41.4929      0.00000
     76      41.4933      0.00000
     77      41.5865      0.00000
     78      41.5866      0.00000
     79      42.5886      0.00000
     80      42.5970      0.00000


--------------------------------------------------------------------------------------------------------


 soft charge-density along one line, spin component           1
         0         1         2         3         4         5         6         7         8         9
 total charge-density along one line
 
 pseudopotential strength for first ion, spin component:           1
-47.003   8.616   0.000  -0.000  -0.000   0.000  -0.000  -0.000
  8.616  -0.378  -0.000   0.000   0.000  -0.000   0.000   0.000
  0.000  -0.000  -0.390  -0.000   0.000   0.370  -0.000   0.000
 -0.000   0.000  -0.000  -0.392  -0.000  -0.000   0.369  -0.000
 -0.000   0.000   0.000  -0.000  -0.390   0.000  -0.000   0.370
  0.000  -0.000   0.370  -0.000   0.000   2.067  -0.000   0.000
 -0.000   0.000  -0.000   0.369  -0.000  -0.000   2.066   0.000
 -0.000   0.000   0.000  -0.000   0.370   0.000   0.000   2.067
 total augmentation occupancy for first ion, spin component:           1
  2.012   0.090   0.000  -0.000  -0.000   0.000   0.000   0.000
  0.090   0.665   0.000  -0.000  -0.000  -0.000   0.000  -0.000
  0.000   0.000   0.064  -0.004  -0.007  -0.010   0.001   0.002
 -0.000  -0.000  -0.004   0.084   0.002   0.001  -0.015  -0.000
 -0.000  -0.000  -0.007   0.002   0.090   0.002  -0.000  -0.016
  0.000  -0.000  -0.010   0.001   0.002   0.002  -0.000  -0.000
  0.000   0.000   0.001  -0.015  -0.000  -0.000   0.003   0.000
  0.000  -0.000   0.002  -0.000  -0.016  -0.000   0.000   0.003


------------------------ aborting loop because EDIFF is reached ----------------------------------------


 


 total charge     
 
# of ion     s       p       d       tot
----------------------------------------
  1        2.068   0.189   0.000   2.257
  2        2.068   0.189   0.000   2.257
  3        2.109   5.965   2.089  10.163
  4        2.109   5.965   2.089  10.163
  5        1.553   3.487   0.000   5.040
  6        1.553   3.487   0.000   5.040
  7        1.553   3.487   0.000   5.040
  8        1.553   3.487   0.000   5.040
------------------------------------------------
tot       14.567  26.255   4.179  45.001
 


--------------------------------------------------------------------------------------------------------


    CHARGE:  VPU time    2.18: CPU time    2.18
    FORLOC:  VPU time    0.00: CPU time    0.00
    FORNL :  VPU time    6.92: CPU time    6.92
    STRESS:  VPU time   18.35: CPU time   18.36
    FORCOR:  VPU time    0.03: CPU time    0.03
    FORHAR:  VPU time    0.01: CPU time    0.01
    MIXING:  VPU time    0.00: CPU time    0.00


--------------------------------------------------------------------------------------------------------



  FREE ENERGIE OF THE ION-ELECTRON SYSTEM (eV)
  ---------------------------------------------------
  free  energy   TOTEN  =       -59.871840 eV

  energy  without entropy=      -59.871840  energy(sigma->0) =      -59.871840
 

  FORCE on cell =-STRESS in cart. coord.  units (eV/reduce length):
  Direction    X        Y        Z        XY       YZ       ZX
  --------------------------------------------------------------------------------------
  Alpha Z    260.53    260.53    260.53
  Ewald    -1040.55  -1040.90  -1948.09      0.30      0.00      0.00
  Hartree    602.14    601.99    -47.49      0.13     -0.00     -0.00
  E(xc)     -264.17   -264.17   -264.57      0.00     -0.00      0.00
  Local     -713.83   -713.35    845.08     -0.42     -0.00      0.00
  n-local      5.24    -12.75      6.82     -5.19     -0.00     -0.00
  augment     94.43     94.43     91.86      0.00     -0.00     -0.00
  Kinetic   1036.28   1094.75   1056.01     16.86     -0.00     -0.00
  -------------------------------------------------------------------------------------
  Total        0.30      0.30      0.14      0.00      0.00      0.00
  in kB        6.16      6.14      2.89      0.02      0.00      0.00
  external pressure =        5.07 kB  Pullay stress =        0.00 kB


 VOLUME and BASIS-vectors are now :
 -----------------------------------------------------------------------------
  energy-cutoff  :      560.00
  volume of cell :       78.60
      direct lattice vectors                 reciprocal lattice vectors
     1.465167127 -2.537743905  0.000000000     0.341257998 -0.197025397  0.000000000
     1.465167127  2.537743905  0.000000000     0.341257998  0.197025397  0.000000000
     0.000000000  0.000000000 10.568949187     0.000000000  0.000000000  0.094616786

  length of vectors
     2.930334253  2.930334253 10.568949187     0.394050794  0.394050794  0.094616786


 FORCES acting on ions
    electron-ion (+dipol)            ewald-force                    non-local-force                 convergence-correction
 -----------------------------------------------------------------------------------------------
   -.824E-14 -.518E-14 -.126E-13   -.221E-14 0.612E-15 -.142E-13   0.414E-24 -.703E-23 0.000E+00   -.177E-14 0.630E-15 0.283E-13
   -.826E-14 -.452E-14 -.259E-13   -.466E-14 -.351E-15 0.000E+00   -.145E-23 0.414E-23 0.000E+00   0.192E-16 0.373E-15 0.658E-13
   -.875E-01 -.505E-01 -.796E-09   0.901E-01 0.520E-01 0.227E-12   0.428E-02 0.247E-02 -.102E-19   -.294E-04 -.169E-04 -.401E-11
   0.875E-01 0.505E-01 0.812E-09   -.901E-01 -.520E-01 -.568E-13   -.428E-02 -.247E-02 0.508E-20   0.294E-04 0.169E-04 0.351E-11
   -.430E-01 -.248E-01 0.276E+03   0.475E-01 0.274E-01 -.292E+03   -.983E-03 -.568E-03 0.151E+02   0.282E-05 0.162E-05 -.594E-01
   0.430E-01 0.248E-01 0.276E+03   -.475E-01 -.274E-01 -.292E+03   0.983E-03 0.568E-03 0.151E+02   -.282E-05 -.162E-05 -.594E-01
   0.430E-01 0.248E-01 -.276E+03   -.475E-01 -.274E-01 0.292E+03   0.983E-03 0.568E-03 -.151E+02   -.282E-05 -.162E-05 0.594E-01
   -.430E-01 -.248E-01 -.276E+03   0.475E-01 0.274E-01 0.292E+03   -.983E-03 -.568E-03 -.151E+02   0.282E-05 0.162E-05 0.594E-01
 -----------------------------------------------------------------------------------------------
   0.881E-12 -.442E-12 0.169E-10   0.110E-13 0.135E-13 0.171E-12   0.423E-16 -.173E-17 -.178E-14   -.662E-13 -.176E-13 -.408E-12
 
 
 POSITION                                       TOTAL-FORCE (eV/Angst)
 -----------------------------------------------------------------------------------
      0.00000      0.00000      0.00000         0.000000      0.000000      0.000000
      0.00000      0.00000      5.28447        -0.000000      0.000000      0.000000
      1.46483     -0.84611      7.92671         0.006824      0.003940      0.000000
      1.46550      0.84611      2.64224        -0.006824     -0.003940      0.000000
      1.46506     -0.84597      1.30758         0.003446      0.001990      0.008552
      1.46527      0.84597      6.59205        -0.003446     -0.001990      0.008552
      1.46527      0.84597      9.26137        -0.003446     -0.001990     -0.008552
      1.46506     -0.84597      3.97690         0.003446      0.001990     -0.008552
 -----------------------------------------------------------------------------------
    total drift:                                0.000000     -0.000000      0.000000


--------------------------------------------------------------------------------------------------------



 mean value of Nose-termostat <S>:     1.000 mean value of <T> :     0.000
 mean temperature <T/S>/<1/S>  :     0.000

     LOOP+:  VPU time 1407.71: CPU time 1417.33
 


 total charge     
 
# of ion     s       p       d       tot
----------------------------------------
  1        2.068   0.189   0.000   2.257
  2        2.068   0.189   0.000   2.257
  3        2.109   5.965   2.089  10.163
  4        2.109   5.965   2.089  10.163
  5        1.553   3.487   0.000   5.040
  6        1.553   3.487   0.000   5.040
  7        1.553   3.487   0.000   5.040
  8        1.553   3.487   0.000   5.040
------------------------------------------------
tot       14.567  26.255   4.179  45.001
 
 BZINTS: Fermi energy:  8.452698; 56.000000 electrons
         Band energy:-615.794563;  BLOECHL correction:  0.000000
  
  
 General timing and accounting informations for this job:
 ========================================================
  
                  Total CPU time used (sec):     1441.374
                            User time (sec):     1413.953
                          System time (sec):       27.421
                         Elapsed time (sec):     1456.419
  
                   Maximum memory used (kb):      127576.
                   Average memory used (kb):           0.
  
                          Minor page faults:        10167
                          Major page faults:            0
                 Voluntary context switches:          927
