 vasp.4.6.35 3Apr08 complex 
 executed on             LinuxIFC date 2014.12.04  10:04:49
 running on   32 nodes
 distr:  one band on   16 nodes,    2 groups


--------------------------------------------------------------------------------------------------------


 INCAR:
 POTCAR:   PAW_PBE H 15Jun2001                    
 POTCAR:   PAW_PBE H 15Jun2001                    
   VRHFIN =H: ultrasoft test                                                    
   LEXCH  = PE                                                                  
   EATOM  =    12.4884 eV,     .9179 Ry                                         
                                                                                
   TITEL  = PAW_PBE H 15Jun2001                                                 
   LULTRA =        F    use ultrasoft PP ?                                      
   IUNSCR =        0    unscreen: 0-lin 1-nonlin 2-no                           
   RPACOR =     .000    partial core radius                                     
   POMASS =    1.000; ZVAL   =    1.000    mass and valenz                      
   RCORE  =    1.100    outmost cutoff radius                                   
   RWIGS  =     .700; RWIGS  =     .370    wigner-seitz radius (au A)           
   ENMAX  =  250.000; ENMIN  =  200.000 eV                                      
   RCLOC  =     .701    cutoff for local pot                                    
   LCOR   =        T    correct aug charges                                     
   LPAW   =        T    paw PP                                                  
   EAUG   =  400.000                                                            
   RMAX   =    2.174    core radius for proj-oper                               
   RAUG   =    1.200    factor for augmentation sphere                          
   RDEP   =    1.112    radius for radial grids                                 
   QCUT   =   -5.749; QGAM   =   11.498    optimization parameters              
                                                                                
   Description                                                                  
     l     E      TYP  RCUT    TYP  RCUT                                        
     0   .000     23  1.100                                                     
     0   .500     23  1.100                                                     
     1  -.300     23  1.100                                                     
  local pseudopotential read in
  atomic valenz-charges read in
  non local Contribution for L=           0  read in
    real space projection operators read in
  non local Contribution for L=           0  read in
    real space projection operators read in
  non local Contribution for L=           1  read in
    real space projection operators read in
    PAW grid and wavefunctions read in
 
   number of l-projection  operators is LMAX  =           3
   number of lm-projection operators is LMMAX =           5
 
 PAW_PBE H 15Jun2001                    :
 energy of atom  1       EATOM=  -12.4884
 kinetic energy error for atom=    0.0203 (will be added to EATOM!!)
 
 EXHCAR: internal setup
 exchange correlation table for  LEXCH =        8
   RHO(1)=    0.500       N(1)  =     2000
   RHO(2)=  100.500       N(2)  =     4000
 
 POSCAR: H2   [BCT,BCT1,tI4] (STD_PRIM doi:10.101
  positions in direct lattice
  No initial velocities read in
 


--------------------------------------------------------------------------------------------------------


 ion  position               nearest neighbor table
   1  0.250  0.250  0.000-
   2  0.750  0.750  0.000-
 
  LATTYP: Found a body centered tetragonal cell.
 ALAT       =     4.4822940239
 C/A-ratio  =     1.3383595395
  
  Lattice vectors:
  
 A1 = (  -2.2411470119,   2.2411470119,   2.9994604829)
 A2 = (   2.2411470119,  -2.2411470119,   2.9994604829)
 A3 = (   2.2411470119,   2.2411470119,  -2.9994604829)
 Subroutine PRICEL returns:
 Original cell was already a primitive cell.
 

Analysis of symmetry for initial positions (statically):

 Routine SETGRP: Setting up the symmetry group for a 
 body centered tetragonal supercell.


 Subroutine GETGRP returns: Found 16 space group operations
 (whereof 16 operations were pure point group operations)
 out of a pool of 16 trial point group operations.


The static configuration has the point symmetry D_4h.

Analysis of symmetry for dynamics (positions and initial velocities):

 Subroutine DYNSYM returns: Found 16 space group operations
 (whereof 16 operations were pure point group operations)
 out of a pool of 16 trial space group operations
 (whereof 16 operations were pure point group operations)
 and found also     1 'primitive' translations


The dynamic configuration has the point symmetry D_4h.

Analysis of magnetic symmetry:

 Subroutine MAGSYM returns: Found 16 space group operations
 (whereof 16 operations were pure point group operations)
 out of a pool of 16 trial space group operations
 (whereof 16 operations were pure point group operations)
 and found also     1 'primitive' translations


The magnetic configuration has the point symmetry D_4h.
 
 
 KPOINTS: KPOINTS File, automatically generated by

Automatic generation of k-mesh.
 
 Subroutine IBZKPT returns following result:
 ===========================================
 
 Found    550 irreducible k-points:
 
 Following reciprocal coordinates:
            Coordinates               Weight
  0.000000  0.000000  0.000000      1.000000
  0.052632  0.000000  0.000000      8.000000
  0.105263  0.000000  0.000000      8.000000
  0.157895  0.000000  0.000000      8.000000
  0.210526  0.000000  0.000000      8.000000
  0.263158  0.000000  0.000000      8.000000
  0.315789  0.000000  0.000000      8.000000
  0.368421  0.000000  0.000000      8.000000
  0.421053  0.000000  0.000000      8.000000
  0.473684  0.000000  0.000000      8.000000
  0.052632  0.052632  0.000000      8.000000
  0.105263  0.052632  0.000000     16.000000
  0.157895  0.052632  0.000000     16.000000
  0.210526  0.052632  0.000000     16.000000
  0.263158  0.052632  0.000000     16.000000
  0.315789  0.052632  0.000000     16.000000
  0.368421  0.052632  0.000000     16.000000
  0.421053  0.052632  0.000000     16.000000
  0.473684  0.052632  0.000000     16.000000
 -0.473684  0.052632  0.000000     16.000000
 -0.421053  0.052632  0.000000     16.000000
 -0.368421  0.052632  0.000000     16.000000
 -0.315789  0.052632  0.000000     16.000000
 -0.263158  0.052632  0.000000     16.000000
 -0.210526  0.052632  0.000000     16.000000
 -0.157895  0.052632  0.000000     16.000000
 -0.105263  0.052632  0.000000     16.000000
 -0.052632  0.052632  0.000000      4.000000
  0.105263  0.105263  0.000000      8.000000
  0.157895  0.105263  0.000000     16.000000
  0.210526  0.105263  0.000000     16.000000
  0.263158  0.105263  0.000000     16.000000
  0.315789  0.105263  0.000000     16.000000
  0.368421  0.105263  0.000000     16.000000
  0.421053  0.105263  0.000000     16.000000
  0.473684  0.105263  0.000000     16.000000
 -0.473684  0.105263  0.000000     16.000000
 -0.421053  0.105263  0.000000     16.000000
 -0.368421  0.105263  0.000000     16.000000
 -0.315789  0.105263  0.000000     16.000000
 -0.263158  0.105263  0.000000     16.000000
 -0.210526  0.105263  0.000000     16.000000
 -0.157895  0.105263  0.000000     16.000000
 -0.105263  0.105263  0.000000      4.000000
  0.157895  0.157895  0.000000      8.000000
  0.210526  0.157895  0.000000     16.000000
  0.263158  0.157895  0.000000     16.000000
  0.315789  0.157895  0.000000     16.000000
  0.368421  0.157895  0.000000     16.000000
  0.421053  0.157895  0.000000     16.000000
  0.473684  0.157895  0.000000     16.000000
 -0.473684  0.157895  0.000000     16.000000
 -0.421053  0.157895  0.000000     16.000000
 -0.368421  0.157895  0.000000     16.000000
 -0.315789  0.157895  0.000000     16.000000
 -0.263158  0.157895  0.000000     16.000000
 -0.210526  0.157895  0.000000     16.000000
 -0.157895  0.157895  0.000000      4.000000
  0.210526  0.210526  0.000000      8.000000
  0.263158  0.210526  0.000000     16.000000
  0.315789  0.210526  0.000000     16.000000
  0.368421  0.210526  0.000000     16.000000
  0.421053  0.210526  0.000000     16.000000
  0.473684  0.210526  0.000000     16.000000
 -0.473684  0.210526  0.000000     16.000000
 -0.421053  0.210526  0.000000     16.000000
 -0.368421  0.210526  0.000000     16.000000
 -0.315789  0.210526  0.000000     16.000000
 -0.263158  0.210526  0.000000     16.000000
 -0.210526  0.210526  0.000000      4.000000
  0.263158  0.263158  0.000000      8.000000
  0.315789  0.263158  0.000000     16.000000
  0.368421  0.263158  0.000000     16.000000
  0.421053  0.263158  0.000000     16.000000
  0.473684  0.263158  0.000000     16.000000
 -0.473684  0.263158  0.000000     16.000000
 -0.421053  0.263158  0.000000     16.000000
 -0.368421  0.263158  0.000000     16.000000
 -0.315789  0.263158  0.000000     16.000000
 -0.263158  0.263158  0.000000      4.000000
  0.315789  0.315789  0.000000      8.000000
  0.368421  0.315789  0.000000     16.000000
  0.421053  0.315789  0.000000     16.000000
  0.473684  0.315789  0.000000     16.000000
 -0.473684  0.315789  0.000000     16.000000
 -0.421053  0.315789  0.000000     16.000000
 -0.368421  0.315789  0.000000     16.000000
 -0.315789  0.315789  0.000000      4.000000
  0.368421  0.368421  0.000000      8.000000
  0.421053  0.368421  0.000000     16.000000
  0.473684  0.368421  0.000000     16.000000
 -0.473684  0.368421  0.000000     16.000000
 -0.421053  0.368421  0.000000     16.000000
 -0.368421  0.368421  0.000000      4.000000
  0.421053  0.421053  0.000000      8.000000
  0.473684  0.421053  0.000000     16.000000
 -0.473684  0.421053  0.000000     16.000000
 -0.421053  0.421053  0.000000      4.000000
  0.473684  0.473684  0.000000      8.000000
 -0.473684  0.473684  0.000000      4.000000
  0.052632  0.052632  0.052632      8.000000
  0.105263  0.052632  0.052632     16.000000
  0.157895  0.052632  0.052632     16.000000
  0.210526  0.052632  0.052632     16.000000
  0.263158  0.052632  0.052632     16.000000
  0.315789  0.052632  0.052632     16.000000
  0.368421  0.052632  0.052632     16.000000
  0.421053  0.052632  0.052632     16.000000
 -0.052632  0.052632  0.052632      4.000000
  0.105263  0.105263  0.052632      8.000000
  0.157895  0.105263  0.052632     16.000000
  0.210526  0.105263  0.052632     16.000000
  0.263158  0.105263  0.052632     16.000000
  0.315789  0.105263  0.052632     16.000000
  0.368421  0.105263  0.052632     16.000000
  0.421053  0.105263  0.052632     16.000000
  0.473684  0.105263  0.052632     16.000000
 -0.473684  0.105263  0.052632     16.000000
 -0.421053  0.105263  0.052632     16.000000
 -0.368421  0.105263  0.052632     16.000000
 -0.315789  0.105263  0.052632     16.000000
 -0.263158  0.105263  0.052632     16.000000
 -0.210526  0.105263  0.052632      8.000000
 -0.105263  0.105263  0.052632      8.000000
 -0.052632  0.105263  0.052632      8.000000
  0.157895  0.157895  0.052632      8.000000
  0.210526  0.157895  0.052632     16.000000
  0.263158  0.157895  0.052632     16.000000
  0.315789  0.157895  0.052632     16.000000
  0.368421  0.157895  0.052632     16.000000
  0.421053  0.157895  0.052632     16.000000
  0.473684  0.157895  0.052632     16.000000
 -0.473684  0.157895  0.052632     16.000000
 -0.421053  0.157895  0.052632     16.000000
 -0.368421  0.157895  0.052632     16.000000
 -0.315789  0.157895  0.052632     16.000000
 -0.263158  0.157895  0.052632      8.000000
 -0.157895  0.157895  0.052632      8.000000
 -0.105263  0.157895  0.052632     16.000000
 -0.052632  0.157895  0.052632      8.000000
  0.210526  0.210526  0.052632      8.000000
  0.263158  0.210526  0.052632     16.000000
  0.315789  0.210526  0.052632     16.000000
  0.368421  0.210526  0.052632     16.000000
  0.421053  0.210526  0.052632     16.000000
  0.473684  0.210526  0.052632     16.000000
 -0.473684  0.210526  0.052632     16.000000
 -0.421053  0.210526  0.052632     16.000000
 -0.368421  0.210526  0.052632     16.000000
 -0.315789  0.210526  0.052632      8.000000
 -0.210526  0.210526  0.052632      8.000000
 -0.157895  0.210526  0.052632     16.000000
 -0.105263  0.210526  0.052632     16.000000
 -0.052632  0.210526  0.052632      8.000000
  0.263158  0.263158  0.052632      8.000000
  0.315789  0.263158  0.052632     16.000000
  0.368421  0.263158  0.052632     16.000000
  0.421053  0.263158  0.052632     16.000000
  0.473684  0.263158  0.052632     16.000000
 -0.473684  0.263158  0.052632     16.000000
 -0.421053  0.263158  0.052632     16.000000
 -0.368421  0.263158  0.052632      8.000000
 -0.263158  0.263158  0.052632      8.000000
 -0.210526  0.263158  0.052632     16.000000
 -0.157895  0.263158  0.052632     16.000000
 -0.105263  0.263158  0.052632     16.000000
 -0.052632  0.263158  0.052632      8.000000
  0.315789  0.315789  0.052632      8.000000
  0.368421  0.315789  0.052632     16.000000
  0.421053  0.315789  0.052632     16.000000
  0.473684  0.315789  0.052632     16.000000
 -0.473684  0.315789  0.052632     16.000000
 -0.421053  0.315789  0.052632      8.000000
 -0.315789  0.315789  0.052632      8.000000
 -0.263158  0.315789  0.052632     16.000000
 -0.210526  0.315789  0.052632     16.000000
 -0.157895  0.315789  0.052632     16.000000
 -0.105263  0.315789  0.052632     16.000000
 -0.052632  0.315789  0.052632      8.000000
  0.368421  0.368421  0.052632      8.000000
  0.421053  0.368421  0.052632     16.000000
  0.473684  0.368421  0.052632     16.000000
 -0.473684  0.368421  0.052632      8.000000
 -0.368421  0.368421  0.052632      8.000000
 -0.315789  0.368421  0.052632     16.000000
 -0.263158  0.368421  0.052632     16.000000
 -0.210526  0.368421  0.052632     16.000000
 -0.157895  0.368421  0.052632     16.000000
 -0.105263  0.368421  0.052632     16.000000
 -0.052632  0.368421  0.052632      8.000000
  0.421053  0.421053  0.052632      8.000000
  0.473684  0.421053  0.052632      8.000000
 -0.421053  0.421053  0.052632      8.000000
 -0.368421  0.421053  0.052632     16.000000
 -0.315789  0.421053  0.052632     16.000000
 -0.263158  0.421053  0.052632     16.000000
 -0.210526  0.421053  0.052632     16.000000
 -0.157895  0.421053  0.052632     16.000000
 -0.105263  0.421053  0.052632     16.000000
 -0.052632  0.421053  0.052632      8.000000
 -0.473684  0.473684  0.052632      8.000000
 -0.421053  0.473684  0.052632     16.000000
 -0.368421  0.473684  0.052632     16.000000
 -0.315789  0.473684  0.052632     16.000000
 -0.263158  0.473684  0.052632     16.000000
 -0.210526  0.473684  0.052632     16.000000
 -0.157895  0.473684  0.052632     16.000000
 -0.105263  0.473684  0.052632     16.000000
 -0.052632  0.473684  0.052632      8.000000
 -0.473684 -0.473684  0.052632      8.000000
 -0.421053 -0.473684  0.052632     16.000000
 -0.368421 -0.473684  0.052632     16.000000
 -0.315789 -0.473684  0.052632     16.000000
 -0.263158 -0.473684  0.052632     16.000000
 -0.210526 -0.473684  0.052632     16.000000
 -0.157895 -0.473684  0.052632     16.000000
 -0.105263 -0.473684  0.052632     16.000000
 -0.052632 -0.473684  0.052632      8.000000
 -0.421053 -0.421053  0.052632      8.000000
 -0.368421 -0.421053  0.052632     16.000000
 -0.315789 -0.421053  0.052632     16.000000
 -0.263158 -0.421053  0.052632     16.000000
 -0.210526 -0.421053  0.052632     16.000000
 -0.157895 -0.421053  0.052632     16.000000
 -0.105263 -0.421053  0.052632     16.000000
 -0.052632 -0.421053  0.052632      8.000000
 -0.368421 -0.368421  0.052632      8.000000
 -0.315789 -0.368421  0.052632     16.000000
 -0.263158 -0.368421  0.052632     16.000000
 -0.210526 -0.368421  0.052632     16.000000
 -0.157895 -0.368421  0.052632     16.000000
 -0.105263 -0.368421  0.052632     16.000000
 -0.052632 -0.368421  0.052632      8.000000
 -0.315789 -0.315789  0.052632      8.000000
 -0.263158 -0.315789  0.052632     16.000000
 -0.210526 -0.315789  0.052632     16.000000
 -0.157895 -0.315789  0.052632     16.000000
 -0.105263 -0.315789  0.052632     16.000000
 -0.052632 -0.315789  0.052632      8.000000
 -0.263158 -0.263158  0.052632      8.000000
 -0.210526 -0.263158  0.052632     16.000000
 -0.157895 -0.263158  0.052632     16.000000
 -0.105263 -0.263158  0.052632     16.000000
 -0.052632 -0.263158  0.052632      8.000000
 -0.210526 -0.210526  0.052632      8.000000
 -0.157895 -0.210526  0.052632     16.000000
 -0.105263 -0.210526  0.052632     16.000000
 -0.052632 -0.210526  0.052632      8.000000
 -0.157895 -0.157895  0.052632      8.000000
 -0.105263 -0.157895  0.052632     16.000000
 -0.052632 -0.157895  0.052632      8.000000
 -0.105263 -0.105263  0.052632      8.000000
 -0.052632 -0.105263  0.052632      8.000000
 -0.052632 -0.052632  0.052632      2.000000
  0.105263  0.105263  0.105263      8.000000
  0.157895  0.105263  0.105263     16.000000
  0.210526  0.105263  0.105263     16.000000
  0.263158  0.105263  0.105263     16.000000
  0.315789  0.105263  0.105263     16.000000
  0.368421  0.105263  0.105263     16.000000
 -0.105263  0.105263  0.105263      4.000000
  0.157895  0.157895  0.105263      8.000000
  0.210526  0.157895  0.105263     16.000000
  0.263158  0.157895  0.105263     16.000000
  0.315789  0.157895  0.105263     16.000000
  0.368421  0.157895  0.105263     16.000000
  0.421053  0.157895  0.105263     16.000000
  0.473684  0.157895  0.105263     16.000000
 -0.473684  0.157895  0.105263     16.000000
 -0.421053  0.157895  0.105263     16.000000
 -0.368421  0.157895  0.105263      8.000000
 -0.157895  0.157895  0.105263      8.000000
 -0.105263  0.157895  0.105263      8.000000
  0.210526  0.210526  0.105263      8.000000
  0.263158  0.210526  0.105263     16.000000
  0.315789  0.210526  0.105263     16.000000
  0.368421  0.210526  0.105263     16.000000
  0.421053  0.210526  0.105263     16.000000
  0.473684  0.210526  0.105263     16.000000
 -0.473684  0.210526  0.105263     16.000000
 -0.421053  0.210526  0.105263      8.000000
 -0.210526  0.210526  0.105263      8.000000
 -0.157895  0.210526  0.105263     16.000000
 -0.105263  0.210526  0.105263      8.000000
  0.263158  0.263158  0.105263      8.000000
  0.315789  0.263158  0.105263     16.000000
  0.368421  0.263158  0.105263     16.000000
  0.421053  0.263158  0.105263     16.000000
  0.473684  0.263158  0.105263     16.000000
 -0.473684  0.263158  0.105263      8.000000
 -0.263158  0.263158  0.105263      8.000000
 -0.210526  0.263158  0.105263     16.000000
 -0.157895  0.263158  0.105263     16.000000
 -0.105263  0.263158  0.105263      8.000000
  0.315789  0.315789  0.105263      8.000000
  0.368421  0.315789  0.105263     16.000000
  0.421053  0.315789  0.105263     16.000000
  0.473684  0.315789  0.105263      8.000000
 -0.315789  0.315789  0.105263      8.000000
 -0.263158  0.315789  0.105263     16.000000
 -0.210526  0.315789  0.105263     16.000000
 -0.157895  0.315789  0.105263     16.000000
 -0.105263  0.315789  0.105263      8.000000
  0.368421  0.368421  0.105263      8.000000
  0.421053  0.368421  0.105263      8.000000
 -0.368421  0.368421  0.105263      8.000000
 -0.315789  0.368421  0.105263     16.000000
 -0.263158  0.368421  0.105263     16.000000
 -0.210526  0.368421  0.105263     16.000000
 -0.157895  0.368421  0.105263     16.000000
 -0.105263  0.368421  0.105263      8.000000
 -0.421053  0.421053  0.105263      8.000000
 -0.368421  0.421053  0.105263     16.000000
 -0.315789  0.421053  0.105263     16.000000
 -0.263158  0.421053  0.105263     16.000000
 -0.210526  0.421053  0.105263     16.000000
 -0.157895  0.421053  0.105263     16.000000
 -0.105263  0.421053  0.105263      8.000000
 -0.473684  0.473684  0.105263      8.000000
 -0.421053  0.473684  0.105263     16.000000
 -0.368421  0.473684  0.105263     16.000000
 -0.315789  0.473684  0.105263     16.000000
 -0.263158  0.473684  0.105263     16.000000
 -0.210526  0.473684  0.105263     16.000000
 -0.157895  0.473684  0.105263     16.000000
 -0.105263  0.473684  0.105263      8.000000
 -0.473684 -0.473684  0.105263      8.000000
 -0.421053 -0.473684  0.105263     16.000000
 -0.368421 -0.473684  0.105263     16.000000
 -0.315789 -0.473684  0.105263     16.000000
 -0.263158 -0.473684  0.105263     16.000000
 -0.210526 -0.473684  0.105263     16.000000
 -0.157895 -0.473684  0.105263     16.000000
 -0.105263 -0.473684  0.105263      8.000000
 -0.421053 -0.421053  0.105263      8.000000
 -0.368421 -0.421053  0.105263     16.000000
 -0.315789 -0.421053  0.105263     16.000000
 -0.263158 -0.421053  0.105263     16.000000
 -0.210526 -0.421053  0.105263     16.000000
 -0.157895 -0.421053  0.105263     16.000000
 -0.105263 -0.421053  0.105263      8.000000
 -0.368421 -0.368421  0.105263      8.000000
 -0.315789 -0.368421  0.105263     16.000000
 -0.263158 -0.368421  0.105263     16.000000
 -0.210526 -0.368421  0.105263     16.000000
 -0.157895 -0.368421  0.105263     16.000000
 -0.105263 -0.368421  0.105263      8.000000
 -0.315789 -0.315789  0.105263      8.000000
 -0.263158 -0.315789  0.105263     16.000000
 -0.210526 -0.315789  0.105263     16.000000
 -0.157895 -0.315789  0.105263     16.000000
 -0.105263 -0.315789  0.105263      8.000000
 -0.263158 -0.263158  0.105263      8.000000
 -0.210526 -0.263158  0.105263     16.000000
 -0.157895 -0.263158  0.105263     16.000000
 -0.105263 -0.263158  0.105263      8.000000
 -0.210526 -0.210526  0.105263      8.000000
 -0.157895 -0.210526  0.105263     16.000000
 -0.105263 -0.210526  0.105263      8.000000
 -0.157895 -0.157895  0.105263      8.000000
 -0.105263 -0.157895  0.105263      8.000000
 -0.105263 -0.105263  0.105263      2.000000
  0.157895  0.157895  0.157895      8.000000
  0.210526  0.157895  0.157895     16.000000
  0.263158  0.157895  0.157895     16.000000
  0.315789  0.157895  0.157895     16.000000
 -0.157895  0.157895  0.157895      4.000000
  0.210526  0.210526  0.157895      8.000000
  0.263158  0.210526  0.157895     16.000000
  0.315789  0.210526  0.157895     16.000000
  0.368421  0.210526  0.157895     16.000000
  0.421053  0.210526  0.157895     16.000000
  0.473684  0.210526  0.157895      8.000000
 -0.210526  0.210526  0.157895      8.000000
 -0.157895  0.210526  0.157895      8.000000
  0.263158  0.263158  0.157895      8.000000
  0.315789  0.263158  0.157895     16.000000
  0.368421  0.263158  0.157895     16.000000
  0.421053  0.263158  0.157895      8.000000
 -0.263158  0.263158  0.157895      8.000000
 -0.210526  0.263158  0.157895     16.000000
 -0.157895  0.263158  0.157895      8.000000
  0.315789  0.315789  0.157895      8.000000
  0.368421  0.315789  0.157895      8.000000
 -0.315789  0.315789  0.157895      8.000000
 -0.263158  0.315789  0.157895     16.000000
 -0.210526  0.315789  0.157895     16.000000
 -0.157895  0.315789  0.157895      8.000000
 -0.368421  0.368421  0.157895      8.000000
 -0.315789  0.368421  0.157895     16.000000
 -0.263158  0.368421  0.157895     16.000000
 -0.210526  0.368421  0.157895     16.000000
 -0.157895  0.368421  0.157895      8.000000
 -0.421053  0.421053  0.157895      8.000000
 -0.368421  0.421053  0.157895     16.000000
 -0.315789  0.421053  0.157895     16.000000
 -0.263158  0.421053  0.157895     16.000000
 -0.210526  0.421053  0.157895     16.000000
 -0.157895  0.421053  0.157895      8.000000
 -0.473684  0.473684  0.157895      8.000000
 -0.421053  0.473684  0.157895     16.000000
 -0.368421  0.473684  0.157895     16.000000
 -0.315789  0.473684  0.157895     16.000000
 -0.263158  0.473684  0.157895     16.000000
 -0.210526  0.473684  0.157895     16.000000
 -0.157895  0.473684  0.157895      8.000000
 -0.473684 -0.473684  0.157895      8.000000
 -0.421053 -0.473684  0.157895     16.000000
 -0.368421 -0.473684  0.157895     16.000000
 -0.315789 -0.473684  0.157895     16.000000
 -0.263158 -0.473684  0.157895     16.000000
 -0.210526 -0.473684  0.157895     16.000000
 -0.157895 -0.473684  0.157895      8.000000
 -0.421053 -0.421053  0.157895      8.000000
 -0.368421 -0.421053  0.157895     16.000000
 -0.315789 -0.421053  0.157895     16.000000
 -0.263158 -0.421053  0.157895     16.000000
 -0.210526 -0.421053  0.157895     16.000000
 -0.157895 -0.421053  0.157895      8.000000
 -0.368421 -0.368421  0.157895      8.000000
 -0.315789 -0.368421  0.157895     16.000000
 -0.263158 -0.368421  0.157895     16.000000
 -0.210526 -0.368421  0.157895     16.000000
 -0.157895 -0.368421  0.157895      8.000000
 -0.315789 -0.315789  0.157895      8.000000
 -0.263158 -0.315789  0.157895     16.000000
 -0.210526 -0.315789  0.157895     16.000000
 -0.157895 -0.315789  0.157895      8.000000
 -0.263158 -0.263158  0.157895      8.000000
 -0.210526 -0.263158  0.157895     16.000000
 -0.157895 -0.263158  0.157895      8.000000
 -0.210526 -0.210526  0.157895      8.000000
 -0.157895 -0.210526  0.157895      8.000000
 -0.157895 -0.157895  0.157895      2.000000
  0.210526  0.210526  0.210526      8.000000
  0.263158  0.210526  0.210526     16.000000
 -0.210526  0.210526  0.210526      4.000000
  0.263158  0.263158  0.210526      8.000000
  0.315789  0.263158  0.210526      8.000000
 -0.263158  0.263158  0.210526      8.000000
 -0.210526  0.263158  0.210526      8.000000
 -0.315789  0.315789  0.210526      8.000000
 -0.263158  0.315789  0.210526     16.000000
 -0.210526  0.315789  0.210526      8.000000
 -0.368421  0.368421  0.210526      8.000000
 -0.315789  0.368421  0.210526     16.000000
 -0.263158  0.368421  0.210526     16.000000
 -0.210526  0.368421  0.210526      8.000000
 -0.421053  0.421053  0.210526      8.000000
 -0.368421  0.421053  0.210526     16.000000
 -0.315789  0.421053  0.210526     16.000000
 -0.263158  0.421053  0.210526     16.000000
 -0.210526  0.421053  0.210526      8.000000
 -0.473684  0.473684  0.210526      8.000000
 -0.421053  0.473684  0.210526     16.000000
 -0.368421  0.473684  0.210526     16.000000
 -0.315789  0.473684  0.210526     16.000000
 -0.263158  0.473684  0.210526     16.000000
 -0.210526  0.473684  0.210526      8.000000
 -0.473684 -0.473684  0.210526      8.000000
 -0.421053 -0.473684  0.210526     16.000000
 -0.368421 -0.473684  0.210526     16.000000
 -0.315789 -0.473684  0.210526     16.000000
 -0.263158 -0.473684  0.210526     16.000000
 -0.210526 -0.473684  0.210526      8.000000
 -0.421053 -0.421053  0.210526      8.000000
 -0.368421 -0.421053  0.210526     16.000000
 -0.315789 -0.421053  0.210526     16.000000
 -0.263158 -0.421053  0.210526     16.000000
 -0.210526 -0.421053  0.210526      8.000000
 -0.368421 -0.368421  0.210526      8.000000
 -0.315789 -0.368421  0.210526     16.000000
 -0.263158 -0.368421  0.210526     16.000000
 -0.210526 -0.368421  0.210526      8.000000
 -0.315789 -0.315789  0.210526      8.000000
 -0.263158 -0.315789  0.210526     16.000000
 -0.210526 -0.315789  0.210526      8.000000
 -0.263158 -0.263158  0.210526      8.000000
 -0.210526 -0.263158  0.210526      8.000000
 -0.210526 -0.210526  0.210526      2.000000
 -0.263158  0.263158  0.263158      4.000000
 -0.315789  0.315789  0.263158      8.000000
 -0.263158  0.315789  0.263158      8.000000
 -0.368421  0.368421  0.263158      8.000000
 -0.315789  0.368421  0.263158     16.000000
 -0.263158  0.368421  0.263158      8.000000
 -0.421053  0.421053  0.263158      8.000000
 -0.368421  0.421053  0.263158     16.000000
 -0.315789  0.421053  0.263158     16.000000
 -0.263158  0.421053  0.263158      8.000000
 -0.473684  0.473684  0.263158      8.000000
 -0.421053  0.473684  0.263158     16.000000
 -0.368421  0.473684  0.263158     16.000000
 -0.315789  0.473684  0.263158     16.000000
 -0.263158  0.473684  0.263158      8.000000
 -0.473684 -0.473684  0.263158      8.000000
 -0.421053 -0.473684  0.263158     16.000000
 -0.368421 -0.473684  0.263158     16.000000
 -0.315789 -0.473684  0.263158     16.000000
 -0.263158 -0.473684  0.263158      8.000000
 -0.421053 -0.421053  0.263158      8.000000
 -0.368421 -0.421053  0.263158     16.000000
 -0.315789 -0.421053  0.263158     16.000000
 -0.263158 -0.421053  0.263158      8.000000
 -0.368421 -0.368421  0.263158      8.000000
 -0.315789 -0.368421  0.263158     16.000000
 -0.263158 -0.368421  0.263158      8.000000
 -0.315789 -0.315789  0.263158      8.000000
 -0.263158 -0.315789  0.263158      8.000000
 -0.263158 -0.263158  0.263158      2.000000
 -0.315789  0.315789  0.315789      4.000000
 -0.368421  0.368421  0.315789      8.000000
 -0.315789  0.368421  0.315789      8.000000
 -0.421053  0.421053  0.315789      8.000000
 -0.368421  0.421053  0.315789     16.000000
 -0.315789  0.421053  0.315789      8.000000
 -0.473684  0.473684  0.315789      8.000000
 -0.421053  0.473684  0.315789     16.000000
 -0.368421  0.473684  0.315789     16.000000
 -0.315789  0.473684  0.315789      8.000000
 -0.473684 -0.473684  0.315789      8.000000
 -0.421053 -0.473684  0.315789     16.000000
 -0.368421 -0.473684  0.315789     16.000000
 -0.315789 -0.473684  0.315789      8.000000
 -0.421053 -0.421053  0.315789      8.000000
 -0.368421 -0.421053  0.315789     16.000000
 -0.315789 -0.421053  0.315789      8.000000
 -0.368421 -0.368421  0.315789      8.000000
 -0.315789 -0.368421  0.315789      8.000000
 -0.315789 -0.315789  0.315789      2.000000
 -0.368421  0.368421  0.368421      4.000000
 -0.421053  0.421053  0.368421      8.000000
 -0.368421  0.421053  0.368421      8.000000
 -0.473684  0.473684  0.368421      8.000000
 -0.421053  0.473684  0.368421     16.000000
 -0.368421  0.473684  0.368421      8.000000
 -0.473684 -0.473684  0.368421      8.000000
 -0.421053 -0.473684  0.368421     16.000000
 -0.368421 -0.473684  0.368421      8.000000
 -0.421053 -0.421053  0.368421      8.000000
 -0.368421 -0.421053  0.368421      8.000000
 -0.368421 -0.368421  0.368421      2.000000
 -0.421053  0.421053  0.421053      4.000000
 -0.473684  0.473684  0.421053      8.000000
 -0.421053  0.473684  0.421053      8.000000
 -0.473684 -0.473684  0.421053      8.000000
 -0.421053 -0.473684  0.421053      8.000000
 -0.421053 -0.421053  0.421053      2.000000
 -0.473684  0.473684  0.473684      4.000000
 -0.473684 -0.473684  0.473684      2.000000
 
 Following cartesian coordinates:
            Coordinates               Weight
  0.000000  0.000000  0.000000      1.000000
  0.000000  0.011742  0.008774      8.000000
  0.000000  0.023484  0.017547      8.000000
  0.000000  0.035226  0.026321      8.000000
  0.000000  0.046968  0.035094      8.000000
  0.000000  0.058711  0.043868      8.000000
  0.000000  0.070453  0.052641      8.000000
  0.000000  0.082195  0.061415      8.000000
  0.000000  0.093937  0.070188      8.000000
  0.000000  0.105679  0.078962      8.000000
  0.011742  0.011742  0.017547      8.000000
  0.011742  0.023484  0.026321     16.000000
  0.011742  0.035226  0.035094     16.000000
  0.011742  0.046968  0.043868     16.000000
  0.011742  0.058711  0.052641     16.000000
  0.011742  0.070453  0.061415     16.000000
  0.011742  0.082195  0.070188     16.000000
  0.011742  0.093937  0.078962     16.000000
  0.011742  0.105679  0.087735     16.000000
  0.011742 -0.105679 -0.070188     16.000000
  0.011742 -0.093937 -0.061415     16.000000
  0.011742 -0.082195 -0.052641     16.000000
  0.011742 -0.070453 -0.043868     16.000000
  0.011742 -0.058711 -0.035094     16.000000
  0.011742 -0.046968 -0.026321     16.000000
  0.011742 -0.035226 -0.017547     16.000000
  0.011742 -0.023484 -0.008774     16.000000
  0.011742 -0.011742  0.000000      4.000000
  0.023484  0.023484  0.035094      8.000000
  0.023484  0.035226  0.043868     16.000000
  0.023484  0.046968  0.052641     16.000000
  0.023484  0.058711  0.061415     16.000000
  0.023484  0.070453  0.070188     16.000000
  0.023484  0.082195  0.078962     16.000000
  0.023484  0.093937  0.087735     16.000000
  0.023484  0.105679  0.096509     16.000000
  0.023484 -0.105679 -0.061415     16.000000
  0.023484 -0.093937 -0.052641     16.000000
  0.023484 -0.082195 -0.043868     16.000000
  0.023484 -0.070453 -0.035094     16.000000
  0.023484 -0.058711 -0.026321     16.000000
  0.023484 -0.046968 -0.017547     16.000000
  0.023484 -0.035226 -0.008774     16.000000
  0.023484 -0.023484  0.000000      4.000000
  0.035226  0.035226  0.052641      8.000000
  0.035226  0.046968  0.061415     16.000000
  0.035226  0.058711  0.070188     16.000000
  0.035226  0.070453  0.078962     16.000000
  0.035226  0.082195  0.087735     16.000000
  0.035226  0.093937  0.096509     16.000000
  0.035226  0.105679  0.105282     16.000000
  0.035226 -0.105679 -0.052641     16.000000
  0.035226 -0.093937 -0.043868     16.000000
  0.035226 -0.082195 -0.035094     16.000000
  0.035226 -0.070453 -0.026321     16.000000
  0.035226 -0.058711 -0.017547     16.000000
  0.035226 -0.046968 -0.008774     16.000000
  0.035226 -0.035226  0.000000      4.000000
  0.046968  0.046968  0.070188      8.000000
  0.046968  0.058711  0.078962     16.000000
  0.046968  0.070453  0.087735     16.000000
  0.046968  0.082195  0.096509     16.000000
  0.046968  0.093937  0.105282     16.000000
  0.046968  0.105679  0.114056     16.000000
  0.046968 -0.105679 -0.043868     16.000000
  0.046968 -0.093937 -0.035094     16.000000
  0.046968 -0.082195 -0.026321     16.000000
  0.046968 -0.070453 -0.017547     16.000000
  0.046968 -0.058711 -0.008774     16.000000
  0.046968 -0.046968  0.000000      4.000000
  0.058711  0.058711  0.087735      8.000000
  0.058711  0.070453  0.096509     16.000000
  0.058711  0.082195  0.105282     16.000000
  0.058711  0.093937  0.114056     16.000000
  0.058711  0.105679  0.122829     16.000000
  0.058711 -0.105679 -0.035094     16.000000
  0.058711 -0.093937 -0.026321     16.000000
  0.058711 -0.082195 -0.017547     16.000000
  0.058711 -0.070453 -0.008774     16.000000
  0.058711 -0.058711  0.000000      4.000000
  0.070453  0.070453  0.105282      8.000000
  0.070453  0.082195  0.114056     16.000000
  0.070453  0.093937  0.122829     16.000000
  0.070453  0.105679  0.131603     16.000000
  0.070453 -0.105679 -0.026321     16.000000
  0.070453 -0.093937 -0.017547     16.000000
  0.070453 -0.082195 -0.008774     16.000000
  0.070453 -0.070453  0.000000      4.000000
  0.082195  0.082195  0.122829      8.000000
  0.082195  0.093937  0.131603     16.000000
  0.082195  0.105679  0.140376     16.000000
  0.082195 -0.105679 -0.017547     16.000000
  0.082195 -0.093937 -0.008774     16.000000
  0.082195 -0.082195  0.000000      4.000000
  0.093937  0.093937  0.140376      8.000000
  0.093937  0.105679  0.149150     16.000000
  0.093937 -0.105679 -0.008774     16.000000
  0.093937 -0.093937  0.000000      4.000000
  0.105679  0.105679  0.157923      8.000000
  0.105679 -0.105679  0.000000      4.000000
  0.023484  0.023484  0.017547      8.000000
  0.023484  0.035226  0.026321     16.000000
  0.023484  0.046968  0.035094     16.000000
  0.023484  0.058711  0.043868     16.000000
  0.023484  0.070453  0.052641     16.000000
  0.023484  0.082195  0.061415     16.000000
  0.023484  0.093937  0.070188     16.000000
  0.023484  0.105679  0.078962     16.000000
  0.023484  0.000000  0.000000      4.000000
  0.035226  0.035226  0.035094      8.000000
  0.035226  0.046968  0.043868     16.000000
  0.035226  0.058711  0.052641     16.000000
  0.035226  0.070453  0.061415     16.000000
  0.035226  0.082195  0.070188     16.000000
  0.035226  0.093937  0.078962     16.000000
  0.035226  0.105679  0.087735     16.000000
  0.035226  0.117421  0.096509     16.000000
  0.035226 -0.093937 -0.061415     16.000000
  0.035226 -0.082195 -0.052641     16.000000
  0.035226 -0.070453 -0.043868     16.000000
  0.035226 -0.058711 -0.035094     16.000000
  0.035226 -0.046968 -0.026321     16.000000
  0.035226 -0.035226 -0.017547      8.000000
  0.035226 -0.011742  0.000000      8.000000
  0.035226  0.000000  0.008774      8.000000
  0.046968  0.046968  0.052641      8.000000
  0.046968  0.058711  0.061415     16.000000
  0.046968  0.070453  0.070188     16.000000
  0.046968  0.082195  0.078962     16.000000
  0.046968  0.093937  0.087735     16.000000
  0.046968  0.105679  0.096509     16.000000
  0.046968  0.117421  0.105282     16.000000
  0.046968 -0.093937 -0.052641     16.000000
  0.046968 -0.082195 -0.043868     16.000000
  0.046968 -0.070453 -0.035094     16.000000
  0.046968 -0.058711 -0.026321     16.000000
  0.046968 -0.046968 -0.017547      8.000000
  0.046968 -0.023484  0.000000      8.000000
  0.046968 -0.011742  0.008774     16.000000
  0.046968  0.000000  0.017547      8.000000
  0.058711  0.058711  0.070188      8.000000
  0.058711  0.070453  0.078962     16.000000
  0.058711  0.082195  0.087735     16.000000
  0.058711  0.093937  0.096509     16.000000
  0.058711  0.105679  0.105282     16.000000
  0.058711  0.117421  0.114056     16.000000
  0.058711 -0.093937 -0.043868     16.000000
  0.058711 -0.082195 -0.035094     16.000000
  0.058711 -0.070453 -0.026321     16.000000
  0.058711 -0.058711 -0.017547      8.000000
  0.058711 -0.035226  0.000000      8.000000
  0.058711 -0.023484  0.008774     16.000000
  0.058711 -0.011742  0.017547     16.000000
  0.058711  0.000000  0.026321      8.000000
  0.070453  0.070453  0.087735      8.000000
  0.070453  0.082195  0.096509     16.000000
  0.070453  0.093937  0.105282     16.000000
  0.070453  0.105679  0.114056     16.000000
  0.070453  0.117421  0.122829     16.000000
  0.070453 -0.093937 -0.035094     16.000000
  0.070453 -0.082195 -0.026321     16.000000
  0.070453 -0.070453 -0.017547      8.000000
  0.070453 -0.046968  0.000000      8.000000
  0.070453 -0.035226  0.008774     16.000000
  0.070453 -0.023484  0.017547     16.000000
  0.070453 -0.011742  0.026321     16.000000
  0.070453  0.000000  0.035094      8.000000
  0.082195  0.082195  0.105282      8.000000
  0.082195  0.093937  0.114056     16.000000
  0.082195  0.105679  0.122829     16.000000
  0.082195  0.117421  0.131603     16.000000
  0.082195 -0.093937 -0.026321     16.000000
  0.082195 -0.082195 -0.017547      8.000000
  0.082195 -0.058711  0.000000      8.000000
  0.082195 -0.046968  0.008774     16.000000
  0.082195 -0.035226  0.017547     16.000000
  0.082195 -0.023484  0.026321     16.000000
  0.082195 -0.011742  0.035094     16.000000
  0.082195  0.000000  0.043868      8.000000
  0.093937  0.093937  0.122829      8.000000
  0.093937  0.105679  0.131603     16.000000
  0.093937  0.117421  0.140376     16.000000
  0.093937 -0.093937 -0.017547      8.000000
  0.093937 -0.070453  0.000000      8.000000
  0.093937 -0.058711  0.008774     16.000000
  0.093937 -0.046968  0.017547     16.000000
  0.093937 -0.035226  0.026321     16.000000
  0.093937 -0.023484  0.035094     16.000000
  0.093937 -0.011742  0.043868     16.000000
  0.093937  0.000000  0.052641      8.000000
  0.105679  0.105679  0.140376      8.000000
  0.105679  0.117421  0.149150      8.000000
  0.105679 -0.082195  0.000000      8.000000
  0.105679 -0.070453  0.008774     16.000000
  0.105679 -0.058711  0.017547     16.000000
  0.105679 -0.046968  0.026321     16.000000
  0.105679 -0.035226  0.035094     16.000000
  0.105679 -0.023484  0.043868     16.000000
  0.105679 -0.011742  0.052641     16.000000
  0.105679  0.000000  0.061415      8.000000
  0.117421 -0.093937  0.000000      8.000000
  0.117421 -0.082195  0.008774     16.000000
  0.117421 -0.070453  0.017547     16.000000
  0.117421 -0.058711  0.026321     16.000000
  0.117421 -0.046968  0.035094     16.000000
  0.117421 -0.035226  0.043868     16.000000
  0.117421 -0.023484  0.052641     16.000000
  0.117421 -0.011742  0.061415     16.000000
  0.117421  0.000000  0.070188      8.000000
 -0.093937 -0.093937 -0.157923      8.000000
 -0.093937 -0.082195 -0.149150     16.000000
 -0.093937 -0.070453 -0.140376     16.000000
 -0.093937 -0.058711 -0.131603     16.000000
 -0.093937 -0.046968 -0.122829     16.000000
 -0.093937 -0.035226 -0.114056     16.000000
 -0.093937 -0.023484 -0.105282     16.000000
 -0.093937 -0.011742 -0.096509     16.000000
 -0.093937  0.000000 -0.087735      8.000000
 -0.082195 -0.082195 -0.140376      8.000000
 -0.082195 -0.070453 -0.131603     16.000000
 -0.082195 -0.058711 -0.122829     16.000000
 -0.082195 -0.046968 -0.114056     16.000000
 -0.082195 -0.035226 -0.105282     16.000000
 -0.082195 -0.023484 -0.096509     16.000000
 -0.082195 -0.011742 -0.087735     16.000000
 -0.082195  0.000000 -0.078962      8.000000
 -0.070453 -0.070453 -0.122829      8.000000
 -0.070453 -0.058711 -0.114056     16.000000
 -0.070453 -0.046968 -0.105282     16.000000
 -0.070453 -0.035226 -0.096509     16.000000
 -0.070453 -0.023484 -0.087735     16.000000
 -0.070453 -0.011742 -0.078962     16.000000
 -0.070453  0.000000 -0.070188      8.000000
 -0.058711 -0.058711 -0.105282      8.000000
 -0.058711 -0.046968 -0.096509     16.000000
 -0.058711 -0.035226 -0.087735     16.000000
 -0.058711 -0.023484 -0.078962     16.000000
 -0.058711 -0.011742 -0.070188     16.000000
 -0.058711  0.000000 -0.061415      8.000000
 -0.046968 -0.046968 -0.087735      8.000000
 -0.046968 -0.035226 -0.078962     16.000000
 -0.046968 -0.023484 -0.070188     16.000000
 -0.046968 -0.011742 -0.061415     16.000000
 -0.046968  0.000000 -0.052641      8.000000
 -0.035226 -0.035226 -0.070188      8.000000
 -0.035226 -0.023484 -0.061415     16.000000
 -0.035226 -0.011742 -0.052641     16.000000
 -0.035226  0.000000 -0.043868      8.000000
 -0.023484 -0.023484 -0.052641      8.000000
 -0.023484 -0.011742 -0.043868     16.000000
 -0.023484  0.000000 -0.035094      8.000000
 -0.011742 -0.011742 -0.035094      8.000000
 -0.011742  0.000000 -0.026321      8.000000
  0.000000  0.000000 -0.017547      2.000000
  0.046968  0.046968  0.035094      8.000000
  0.046968  0.058711  0.043868     16.000000
  0.046968  0.070453  0.052641     16.000000
  0.046968  0.082195  0.061415     16.000000
  0.046968  0.093937  0.070188     16.000000
  0.046968  0.105679  0.078962     16.000000
  0.046968  0.000000  0.000000      4.000000
  0.058711  0.058711  0.052641      8.000000
  0.058711  0.070453  0.061415     16.000000
  0.058711  0.082195  0.070188     16.000000
  0.058711  0.093937  0.078962     16.000000
  0.058711  0.105679  0.087735     16.000000
  0.058711  0.117421  0.096509     16.000000
  0.058711  0.129163  0.105282     16.000000
  0.058711 -0.082195 -0.052641     16.000000
  0.058711 -0.070453 -0.043868     16.000000
  0.058711 -0.058711 -0.035094      8.000000
  0.058711 -0.011742  0.000000      8.000000
  0.058711  0.000000  0.008774      8.000000
  0.070453  0.070453  0.070188      8.000000
  0.070453  0.082195  0.078962     16.000000
  0.070453  0.093937  0.087735     16.000000
  0.070453  0.105679  0.096509     16.000000
  0.070453  0.117421  0.105282     16.000000
  0.070453  0.129163  0.114056     16.000000
  0.070453 -0.082195 -0.043868     16.000000
  0.070453 -0.070453 -0.035094      8.000000
  0.070453 -0.023484  0.000000      8.000000
  0.070453 -0.011742  0.008774     16.000000
  0.070453  0.000000  0.017547      8.000000
  0.082195  0.082195  0.087735      8.000000
  0.082195  0.093937  0.096509     16.000000
  0.082195  0.105679  0.105282     16.000000
  0.082195  0.117421  0.114056     16.000000
  0.082195  0.129163  0.122829     16.000000
  0.082195 -0.082195 -0.035094      8.000000
  0.082195 -0.035226  0.000000      8.000000
  0.082195 -0.023484  0.008774     16.000000
  0.082195 -0.011742  0.017547     16.000000
  0.082195  0.000000  0.026321      8.000000
  0.093937  0.093937  0.105282      8.000000
  0.093937  0.105679  0.114056     16.000000
  0.093937  0.117421  0.122829     16.000000
  0.093937  0.129163  0.131603      8.000000
  0.093937 -0.046968  0.000000      8.000000
  0.093937 -0.035226  0.008774     16.000000
  0.093937 -0.023484  0.017547     16.000000
  0.093937 -0.011742  0.026321     16.000000
  0.093937  0.000000  0.035094      8.000000
  0.105679  0.105679  0.122829      8.000000
  0.105679  0.117421  0.131603      8.000000
  0.105679 -0.058711  0.000000      8.000000
  0.105679 -0.046968  0.008774     16.000000
  0.105679 -0.035226  0.017547     16.000000
  0.105679 -0.023484  0.026321     16.000000
  0.105679 -0.011742  0.035094     16.000000
  0.105679  0.000000  0.043868      8.000000
  0.117421 -0.070453  0.000000      8.000000
  0.117421 -0.058711  0.008774     16.000000
  0.117421 -0.046968  0.017547     16.000000
  0.117421 -0.035226  0.026321     16.000000
  0.117421 -0.023484  0.035094     16.000000
  0.117421 -0.011742  0.043868     16.000000
  0.117421  0.000000  0.052641      8.000000
  0.129163 -0.082195  0.000000      8.000000
  0.129163 -0.070453  0.008774     16.000000
  0.129163 -0.058711  0.017547     16.000000
  0.129163 -0.046968  0.026321     16.000000
  0.129163 -0.035226  0.035094     16.000000
  0.129163 -0.023484  0.043868     16.000000
  0.129163 -0.011742  0.052641     16.000000
  0.129163  0.000000  0.061415      8.000000
 -0.082195 -0.082195 -0.157923      8.000000
 -0.082195 -0.070453 -0.149150     16.000000
 -0.082195 -0.058711 -0.140376     16.000000
 -0.082195 -0.046968 -0.131603     16.000000
 -0.082195 -0.035226 -0.122829     16.000000
 -0.082195 -0.023484 -0.114056     16.000000
 -0.082195 -0.011742 -0.105282     16.000000
 -0.082195  0.000000 -0.096509      8.000000
 -0.070453 -0.070453 -0.140376      8.000000
 -0.070453 -0.058711 -0.131603     16.000000
 -0.070453 -0.046968 -0.122829     16.000000
 -0.070453 -0.035226 -0.114056     16.000000
 -0.070453 -0.023484 -0.105282     16.000000
 -0.070453 -0.011742 -0.096509     16.000000
 -0.070453  0.000000 -0.087735      8.000000
 -0.058711 -0.058711 -0.122829      8.000000
 -0.058711 -0.046968 -0.114056     16.000000
 -0.058711 -0.035226 -0.105282     16.000000
 -0.058711 -0.023484 -0.096509     16.000000
 -0.058711 -0.011742 -0.087735     16.000000
 -0.058711  0.000000 -0.078962      8.000000
 -0.046968 -0.046968 -0.105282      8.000000
 -0.046968 -0.035226 -0.096509     16.000000
 -0.046968 -0.023484 -0.087735     16.000000
 -0.046968 -0.011742 -0.078962     16.000000
 -0.046968  0.000000 -0.070188      8.000000
 -0.035226 -0.035226 -0.087735      8.000000
 -0.035226 -0.023484 -0.078962     16.000000
 -0.035226 -0.011742 -0.070188     16.000000
 -0.035226  0.000000 -0.061415      8.000000
 -0.023484 -0.023484 -0.070188      8.000000
 -0.023484 -0.011742 -0.061415     16.000000
 -0.023484  0.000000 -0.052641      8.000000
 -0.011742 -0.011742 -0.052641      8.000000
 -0.011742  0.000000 -0.043868      8.000000
  0.000000  0.000000 -0.035094      2.000000
  0.070453  0.070453  0.052641      8.000000
  0.070453  0.082195  0.061415     16.000000
  0.070453  0.093937  0.070188     16.000000
  0.070453  0.105679  0.078962     16.000000
  0.070453  0.000000  0.000000      4.000000
  0.082195  0.082195  0.070188      8.000000
  0.082195  0.093937  0.078962     16.000000
  0.082195  0.105679  0.087735     16.000000
  0.082195  0.117421  0.096509     16.000000
  0.082195  0.129163  0.105282     16.000000
  0.082195  0.140905  0.114056      8.000000
  0.082195 -0.011742  0.000000      8.000000
  0.082195  0.000000  0.008774      8.000000
  0.093937  0.093937  0.087735      8.000000
  0.093937  0.105679  0.096509     16.000000
  0.093937  0.117421  0.105282     16.000000
  0.093937  0.129163  0.114056      8.000000
  0.093937 -0.023484  0.000000      8.000000
  0.093937 -0.011742  0.008774     16.000000
  0.093937  0.000000  0.017547      8.000000
  0.105679  0.105679  0.105282      8.000000
  0.105679  0.117421  0.114056      8.000000
  0.105679 -0.035226  0.000000      8.000000
  0.105679 -0.023484  0.008774     16.000000
  0.105679 -0.011742  0.017547     16.000000
  0.105679  0.000000  0.026321      8.000000
  0.117421 -0.046968  0.000000      8.000000
  0.117421 -0.035226  0.008774     16.000000
  0.117421 -0.023484  0.017547     16.000000
  0.117421 -0.011742  0.026321     16.000000
  0.117421  0.000000  0.035094      8.000000
  0.129163 -0.058711  0.000000      8.000000
  0.129163 -0.046968  0.008774     16.000000
  0.129163 -0.035226  0.017547     16.000000
  0.129163 -0.023484  0.026321     16.000000
  0.129163 -0.011742  0.035094     16.000000
  0.129163  0.000000  0.043868      8.000000
  0.140905 -0.070453  0.000000      8.000000
  0.140905 -0.058711  0.008774     16.000000
  0.140905 -0.046968  0.017547     16.000000
  0.140905 -0.035226  0.026321     16.000000
  0.140905 -0.023484  0.035094     16.000000
  0.140905 -0.011742  0.043868     16.000000
  0.140905  0.000000  0.052641      8.000000
 -0.070453 -0.070453 -0.157923      8.000000
 -0.070453 -0.058711 -0.149150     16.000000
 -0.070453 -0.046968 -0.140376     16.000000
 -0.070453 -0.035226 -0.131603     16.000000
 -0.070453 -0.023484 -0.122829     16.000000
 -0.070453 -0.011742 -0.114056     16.000000
 -0.070453  0.000000 -0.105282      8.000000
 -0.058711 -0.058711 -0.140376      8.000000
 -0.058711 -0.046968 -0.131603     16.000000
 -0.058711 -0.035226 -0.122829     16.000000
 -0.058711 -0.023484 -0.114056     16.000000
 -0.058711 -0.011742 -0.105282     16.000000
 -0.058711  0.000000 -0.096509      8.000000
 -0.046968 -0.046968 -0.122829      8.000000
 -0.046968 -0.035226 -0.114056     16.000000
 -0.046968 -0.023484 -0.105282     16.000000
 -0.046968 -0.011742 -0.096509     16.000000
 -0.046968  0.000000 -0.087735      8.000000
 -0.035226 -0.035226 -0.105282      8.000000
 -0.035226 -0.023484 -0.096509     16.000000
 -0.035226 -0.011742 -0.087735     16.000000
 -0.035226  0.000000 -0.078962      8.000000
 -0.023484 -0.023484 -0.087735      8.000000
 -0.023484 -0.011742 -0.078962     16.000000
 -0.023484  0.000000 -0.070188      8.000000
 -0.011742 -0.011742 -0.070188      8.000000
 -0.011742  0.000000 -0.061415      8.000000
  0.000000  0.000000 -0.052641      2.000000
  0.093937  0.093937  0.070188      8.000000
  0.093937  0.105679  0.078962     16.000000
  0.093937  0.000000  0.000000      4.000000
  0.105679  0.105679  0.087735      8.000000
  0.105679  0.117421  0.096509      8.000000
  0.105679 -0.011742  0.000000      8.000000
  0.105679  0.000000  0.008774      8.000000
  0.117421 -0.023484  0.000000      8.000000
  0.117421 -0.011742  0.008774     16.000000
  0.117421  0.000000  0.017547      8.000000
  0.129163 -0.035226  0.000000      8.000000
  0.129163 -0.023484  0.008774     16.000000
  0.129163 -0.011742  0.017547     16.000000
  0.129163  0.000000  0.026321      8.000000
  0.140905 -0.046968  0.000000      8.000000
  0.140905 -0.035226  0.008774     16.000000
  0.140905 -0.023484  0.017547     16.000000
  0.140905 -0.011742  0.026321     16.000000
  0.140905  0.000000  0.035094      8.000000
  0.152647 -0.058711  0.000000      8.000000
  0.152647 -0.046968  0.008774     16.000000
  0.152647 -0.035226  0.017547     16.000000
  0.152647 -0.023484  0.026321     16.000000
  0.152647 -0.011742  0.035094     16.000000
  0.152647  0.000000  0.043868      8.000000
 -0.058711 -0.058711 -0.157923      8.000000
 -0.058711 -0.046968 -0.149150     16.000000
 -0.058711 -0.035226 -0.140376     16.000000
 -0.058711 -0.023484 -0.131603     16.000000
 -0.058711 -0.011742 -0.122829     16.000000
 -0.058711  0.000000 -0.114056      8.000000
 -0.046968 -0.046968 -0.140376      8.000000
 -0.046968 -0.035226 -0.131603     16.000000
 -0.046968 -0.023484 -0.122829     16.000000
 -0.046968 -0.011742 -0.114056     16.000000
 -0.046968  0.000000 -0.105282      8.000000
 -0.035226 -0.035226 -0.122829      8.000000
 -0.035226 -0.023484 -0.114056     16.000000
 -0.035226 -0.011742 -0.105282     16.000000
 -0.035226  0.000000 -0.096509      8.000000
 -0.023484 -0.023484 -0.105282      8.000000
 -0.023484 -0.011742 -0.096509     16.000000
 -0.023484  0.000000 -0.087735      8.000000
 -0.011742 -0.011742 -0.087735      8.000000
 -0.011742  0.000000 -0.078962      8.000000
  0.000000  0.000000 -0.070188      2.000000
  0.117421  0.000000  0.000000      4.000000
  0.129163 -0.011742  0.000000      8.000000
  0.129163  0.000000  0.008774      8.000000
  0.140905 -0.023484  0.000000      8.000000
  0.140905 -0.011742  0.008774     16.000000
  0.140905  0.000000  0.017547      8.000000
  0.152647 -0.035226  0.000000      8.000000
  0.152647 -0.023484  0.008774     16.000000
  0.152647 -0.011742  0.017547     16.000000
  0.152647  0.000000  0.026321      8.000000
  0.164390 -0.046968  0.000000      8.000000
  0.164390 -0.035226  0.008774     16.000000
  0.164390 -0.023484  0.017547     16.000000
  0.164390 -0.011742  0.026321     16.000000
  0.164390  0.000000  0.035094      8.000000
 -0.046968 -0.046968 -0.157923      8.000000
 -0.046968 -0.035226 -0.149150     16.000000
 -0.046968 -0.023484 -0.140376     16.000000
 -0.046968 -0.011742 -0.131603     16.000000
 -0.046968  0.000000 -0.122829      8.000000
 -0.035226 -0.035226 -0.140376      8.000000
 -0.035226 -0.023484 -0.131603     16.000000
 -0.035226 -0.011742 -0.122829     16.000000
 -0.035226  0.000000 -0.114056      8.000000
 -0.023484 -0.023484 -0.122829      8.000000
 -0.023484 -0.011742 -0.114056     16.000000
 -0.023484  0.000000 -0.105282      8.000000
 -0.011742 -0.011742 -0.105282      8.000000
 -0.011742  0.000000 -0.096509      8.000000
  0.000000  0.000000 -0.087735      2.000000
  0.140905  0.000000  0.000000      4.000000
  0.152647 -0.011742  0.000000      8.000000
  0.152647  0.000000  0.008774      8.000000
  0.164390 -0.023484  0.000000      8.000000
  0.164390 -0.011742  0.008774     16.000000
  0.164390  0.000000  0.017547      8.000000
  0.176132 -0.035226  0.000000      8.000000
  0.176132 -0.023484  0.008774     16.000000
  0.176132 -0.011742  0.017547     16.000000
  0.176132  0.000000  0.026321      8.000000
 -0.035226 -0.035226 -0.157923      8.000000
 -0.035226 -0.023484 -0.149150     16.000000
 -0.035226 -0.011742 -0.140376     16.000000
 -0.035226  0.000000 -0.131603      8.000000
 -0.023484 -0.023484 -0.140376      8.000000
 -0.023484 -0.011742 -0.131603     16.000000
 -0.023484  0.000000 -0.122829      8.000000
 -0.011742 -0.011742 -0.122829      8.000000
 -0.011742  0.000000 -0.114056      8.000000
  0.000000  0.000000 -0.105282      2.000000
  0.164390  0.000000  0.000000      4.000000
  0.176132 -0.011742  0.000000      8.000000
  0.176132  0.000000  0.008774      8.000000
  0.187874 -0.023484  0.000000      8.000000
  0.187874 -0.011742  0.008774     16.000000
  0.187874  0.000000  0.017547      8.000000
 -0.023484 -0.023484 -0.157923      8.000000
 -0.023484 -0.011742 -0.149150     16.000000
 -0.023484  0.000000 -0.140376      8.000000
 -0.011742 -0.011742 -0.140376      8.000000
 -0.011742  0.000000 -0.131603      8.000000
  0.000000  0.000000 -0.122829      2.000000
  0.187874  0.000000  0.000000      4.000000
  0.199616 -0.011742  0.000000      8.000000
  0.199616  0.000000  0.008774      8.000000
 -0.011742 -0.011742 -0.157923      8.000000
 -0.011742  0.000000 -0.149150      8.000000
  0.000000  0.000000 -0.140376      2.000000
  0.211358  0.000000  0.000000      4.000000
  0.000000  0.000000 -0.157923      2.000000
 
 TETIRR: Found   8729 inequivalent tetrahedra from    41154


--------------------------------------------------------------------------------------------------------




 Dimension of arrays:
   k-Points           NKPTS =    550   number of bands    NBANDS=     34
   number of dos      NEDOS =   5000   number of ions     NIONS =      2
   non local maximal  LDIM  =      3   non local SUM 2l+1 LMDIM =      5
   total plane-waves  NPLWV =  21952
   max r-space proj   IRMAX =      1   max aug-charges    IRDMAX=    845
   dimension x,y,z NGX =    28 NGY =   28 NGZ =   28
   dimension x,y,z NGXF=    40 NGYF=   40 NGZF=   40
   support grid    NGXF=    40 NGYF=   40 NGZF=   40
   ions per type =               2
 NGX,Y,Z   is equivalent  to a cutoff of  10.67, 10.67, 10.67 a.u.
 NGXF,Y,Z  is equivalent  to a cutoff of  15.24, 15.24, 15.24 a.u.


 I would recommend the setting:
   dimension x,y,z NGX =    27 NGY =   27 NGZ =   27
 SYSTEM =  H2_ICSD_28539                           
 POSCAR =  H2   [BCT,BCT1,tI4] (STD_PRIM doi:10.101

 Startparameter for this run:
   NWRITE =      2    write-flag & timer
   PREC   = high      medium, high low
   ISTART =      0    job   : 0-new  1-cont  2-samecut
   ICHARG =      2    charge: 1-file 2-atom 10-const
   ISPIN  =      2    spin polarized calculation?
   LNONCOLLINEAR =      F non collinear calculations
   LSORBIT =      F    spin-orbit coupling
   INIWAV =      1    electr: 0-lowe 1-rand  2-diag
   LASPH  =      F    aspherical Exc in radial PAW
   METAGGA=      F    non-selfconsistent MetaGGA calc.

 Electronic Relaxation 1
   ENCUT  =  350.0 eV  25.72 Ry    5.07 a.u.   6.66  6.66  6.66*2*pi/ulx,y,z
   ENINI  =  350.0     initial cutoff
   ENAUG  =  400.0 eV  augmentation charge cutoff
   NELM   =    120;   NELMIN=  2; NELMDL=  0     # of ELM steps 
   EDIFF  = 0.1E-05   stopping-criterion for ELM
   LREAL  =      F    real-space projection
   LCOMPAT=      F    compatible to vasp.4.4
   LREAL_COMPAT= F    compatible to vasp.4.5.1-3
   GGA_COMPAT  = T    GGA compatible to vasp.4.4-vasp.4.6
   LMAXPAW     = -100 max onsite density
   LMAXMIX     =    2 max onsite mixed and CHGCAR
   VOSKOWN=      0    Vosko Wilk Nusair interpolation
   ROPT   =    0.00000
 Ionic relaxation
   EDIFFG = 0.1E-04   stopping-criterion for IOM
   NSW    =      0    number of steps for IOM
   NBLOCK =      1;   KBLOCK =      1    inner block; outer block 
   IBRION =     -1    ionic relax: 0-MD 1-quasi-New 2-CG
   NFREE  =      1    steps in history (QN), initial steepest desc. (CG)
   ISIF   =      2    stress and relaxation
   IWAVPR =     10    prediction:  0-non 1-charg 2-wave 3-comb
   ISYM   =      2    0-nonsym 1-usesym 2-fastsym
   LCORR  =      T    Harris-Foulkes like correction to forces

   POTIM  =   0.50    time-step for ionic-motion
   TEIN   =    0.0    initial temperature
   TEBEG  =    0.0;   TEEND  =   0.0 temperature during run
   SMASS  =  -3.00    Nose mass-parameter (am)
   estimated Nose-frequenzy (Omega)   =  0.10E-29 period in steps =****** mass=  -0.435E-27a.u.
   NPACO  =    256;   APACO  = 16.0  distance and # of slots for P.C.
   PSTRESS=    0.0 pullay stress

  Mass of Ions in am
   POMASS =   1.00
  Ionic Valenz
   ZVAL   =   1.00
  Atomic Wigner-Seitz radii
   RWIGS  =  -1.00
   NELECT =       2.0000    total number of electrons
   NUPDOWN=      -1.0000    fix difference up-down

 DOS related values:
   EMIN   = -30.00;   EMAX   = 45.00  energy-range for DOS
   ISMEAR =    -5;   SIGMA  =   0.05  broadening in eV -4-tet -1-fermi 0-gaus

 Electronic relaxation 2 (details)
   IALGO  =     38    algorithm
   LDIAG  =      T    sub-space diagonalisation
   IMIX   =      4    mixing-type and parameters
     AMIX     =   0.40;   BMIX     =  1.00
     AMIX_MAG =   1.60;   BMIX_MAG =  1.00
     AMIN     =   0.10
     WC   =   100.;   INIMIX=   1;  MIXPRE=   1

 Intra band minimization:
   WEIMIN = 0.0000     energy-eigenvalue tresh-hold
   EBREAK =  0.74E-08  absolut break condition
   DEPER  =   0.30     relativ break condition  

   TIME   =   0.10     timestep for ELM

  volume/ion in A,a.u.               =      30.13       203.33
  Fermi-wavevector in a.u.,eV,Ry     =   0.526102  3.765870  0.276784

 Second variation
   LSECVAR=     F    do a second variation
 
 Write flags
   LWAVE  =      F    write WAVECAR
   LCHARG =      T    write CHGCAR
   LVTOT  =      F    write LOCPOT, local potential
   LELF   =      F    write electronic localiz. function (ELF)
   LORBIT =     10    0 simple, 1 ext, 2 COOP (PROOUT)


 Dipole corrections
   IDIPOL =      0    1-x, 2-y, 3-z
   LDIPOL =      F    correct potential



--------------------------------------------------------------------------------------------------------


 Static calculation
 charge density will be updated during run
 spin polarized calculation
 Variant of blocked Davidson
 Davidson routine will perform the subspace rotation
 performe sub-space diagonalisation
    after iterative eigenvector-optimisation
 modified Broyden-mixing scheme, WC =      100.0
 initial mixing is a Kerker type mixing with AMIX =  0.4000 and BMIX =      1.0000
 Hartree-type preconditioning will be used
 using additional bands           33
 reciprocal scheme for non local part
 calculate Harris-corrections to forces 
   (improved forces if not selfconsistent)
 use gradient corrections 
 use of overlap-Matrix (Vanderbilt PP)
 Fermi weights with tetrahedron method with Bloechl corrections


--------------------------------------------------------------------------------------------------------


  energy-cutoff  :      350.00
  volume of cell :       60.26
      direct lattice vectors                 reciprocal lattice vectors
    -2.241147012  2.241147012  2.999460483     0.000000000  0.223100045  0.166696645
     2.241147012 -2.241147012  2.999460483     0.223100045  0.000000000  0.166696645
     2.241147012  2.241147012 -2.999460483     0.223100045  0.223100045  0.000000000

  length of vectors
     4.363741863  4.363741863  4.363741863     0.278498477  0.278498477  0.315511110


 
 k-points in units of 2pi/SCALE and weight: KPOINTS File, automatically generated by
   0.00000000  0.00000000  0.00000000       0.000
   0.00000000  0.01174211  0.00877351       0.001
   0.00000000  0.02348422  0.01754702       0.001
   0.00000000  0.03522632  0.02632052       0.001
   0.00000000  0.04696843  0.03509403       0.001
   0.00000000  0.05871054  0.04386754       0.001
   0.00000000  0.07045265  0.05264105       0.001
   0.00000000  0.08219475  0.06141455       0.001
   0.00000000  0.09393686  0.07018806       0.001
   0.00000000  0.10567897  0.07896157       0.001
   0.01174211  0.01174211  0.01754702       0.001
   0.01174211  0.02348422  0.02632052       0.002
   0.01174211  0.03522632  0.03509403       0.002
   0.01174211  0.04696843  0.04386754       0.002
   0.01174211  0.05871054  0.05264105       0.002
   0.01174211  0.07045265  0.06141455       0.002
   0.01174211  0.08219475  0.07018806       0.002
   0.01174211  0.09393686  0.07896157       0.002
   0.01174211  0.10567897  0.08773508       0.002
   0.01174211 -0.10567897 -0.07018806       0.002
   0.01174211 -0.09393686 -0.06141455       0.002
   0.01174211 -0.08219475 -0.05264105       0.002
   0.01174211 -0.07045265 -0.04386754       0.002
   0.01174211 -0.05871054 -0.03509403       0.002
   0.01174211 -0.04696843 -0.02632052       0.002
   0.01174211 -0.03522632 -0.01754702       0.002
   0.01174211 -0.02348422 -0.00877351       0.002
   0.01174211 -0.01174211  0.00000000       0.001
   0.02348422  0.02348422  0.03509403       0.001
   0.02348422  0.03522632  0.04386754       0.002
   0.02348422  0.04696843  0.05264105       0.002
   0.02348422  0.05871054  0.06141455       0.002
   0.02348422  0.07045265  0.07018806       0.002
   0.02348422  0.08219475  0.07896157       0.002
   0.02348422  0.09393686  0.08773508       0.002
   0.02348422  0.10567897  0.09650858       0.002
   0.02348422 -0.10567897 -0.06141455       0.002
   0.02348422 -0.09393686 -0.05264105       0.002
   0.02348422 -0.08219475 -0.04386754       0.002
   0.02348422 -0.07045265 -0.03509403       0.002
   0.02348422 -0.05871054 -0.02632052       0.002
   0.02348422 -0.04696843 -0.01754702       0.002
   0.02348422 -0.03522632 -0.00877351       0.002
   0.02348422 -0.02348422  0.00000000       0.001
   0.03522632  0.03522632  0.05264105       0.001
   0.03522632  0.04696843  0.06141455       0.002
   0.03522632  0.05871054  0.07018806       0.002
   0.03522632  0.07045265  0.07896157       0.002
   0.03522632  0.08219475  0.08773508       0.002
   0.03522632  0.09393686  0.09650858       0.002
   0.03522632  0.10567897  0.10528209       0.002
   0.03522632 -0.10567897 -0.05264105       0.002
   0.03522632 -0.09393686 -0.04386754       0.002
   0.03522632 -0.08219475 -0.03509403       0.002
   0.03522632 -0.07045265 -0.02632052       0.002
   0.03522632 -0.05871054 -0.01754702       0.002
   0.03522632 -0.04696843 -0.00877351       0.002
   0.03522632 -0.03522632  0.00000000       0.001
   0.04696843  0.04696843  0.07018806       0.001
   0.04696843  0.05871054  0.07896157       0.002
   0.04696843  0.07045265  0.08773508       0.002
   0.04696843  0.08219475  0.09650858       0.002
   0.04696843  0.09393686  0.10528209       0.002
   0.04696843  0.10567897  0.11405560       0.002
   0.04696843 -0.10567897 -0.04386754       0.002
   0.04696843 -0.09393686 -0.03509403       0.002
   0.04696843 -0.08219475 -0.02632052       0.002
   0.04696843 -0.07045265 -0.01754702       0.002
   0.04696843 -0.05871054 -0.00877351       0.002
   0.04696843 -0.04696843  0.00000000       0.001
   0.05871054  0.05871054  0.08773508       0.001
   0.05871054  0.07045265  0.09650858       0.002
   0.05871054  0.08219475  0.10528209       0.002
   0.05871054  0.09393686  0.11405560       0.002
   0.05871054  0.10567897  0.12282911       0.002
   0.05871054 -0.10567897 -0.03509403       0.002
   0.05871054 -0.09393686 -0.02632052       0.002
   0.05871054 -0.08219475 -0.01754702       0.002
   0.05871054 -0.07045265 -0.00877351       0.002
   0.05871054 -0.05871054  0.00000000       0.001
   0.07045265  0.07045265  0.10528209       0.001
   0.07045265  0.08219475  0.11405560       0.002
   0.07045265  0.09393686  0.12282911       0.002
   0.07045265  0.10567897  0.13160261       0.002
   0.07045265 -0.10567897 -0.02632052       0.002
   0.07045265 -0.09393686 -0.01754702       0.002
   0.07045265 -0.08219475 -0.00877351       0.002
   0.07045265 -0.07045265  0.00000000       0.001
   0.08219475  0.08219475  0.12282911       0.001
   0.08219475  0.09393686  0.13160261       0.002
   0.08219475  0.10567897  0.14037612       0.002
   0.08219475 -0.10567897 -0.01754702       0.002
   0.08219475 -0.09393686 -0.00877351       0.002
   0.08219475 -0.08219475  0.00000000       0.001
   0.09393686  0.09393686  0.14037612       0.001
   0.09393686  0.10567897  0.14914963       0.002
   0.09393686 -0.10567897 -0.00877351       0.002
   0.09393686 -0.09393686  0.00000000       0.001
   0.10567897  0.10567897  0.15792314       0.001
   0.10567897 -0.10567897  0.00000000       0.001
   0.02348422  0.02348422  0.01754702       0.001
   0.02348422  0.03522632  0.02632052       0.002
   0.02348422  0.04696843  0.03509403       0.002
   0.02348422  0.05871054  0.04386754       0.002
   0.02348422  0.07045265  0.05264105       0.002
   0.02348422  0.08219475  0.06141455       0.002
   0.02348422  0.09393686  0.07018806       0.002
   0.02348422  0.10567897  0.07896157       0.002
   0.02348422  0.00000000  0.00000000       0.001
   0.03522632  0.03522632  0.03509403       0.001
   0.03522632  0.04696843  0.04386754       0.002
   0.03522632  0.05871054  0.05264105       0.002
   0.03522632  0.07045265  0.06141455       0.002
   0.03522632  0.08219475  0.07018806       0.002
   0.03522632  0.09393686  0.07896157       0.002
   0.03522632  0.10567897  0.08773508       0.002
   0.03522632  0.11742108  0.09650858       0.002
   0.03522632 -0.09393686 -0.06141455       0.002
   0.03522632 -0.08219475 -0.05264105       0.002
   0.03522632 -0.07045265 -0.04386754       0.002
   0.03522632 -0.05871054 -0.03509403       0.002
   0.03522632 -0.04696843 -0.02632052       0.002
   0.03522632 -0.03522632 -0.01754702       0.001
   0.03522632 -0.01174211  0.00000000       0.001
   0.03522632  0.00000000  0.00877351       0.001
   0.04696843  0.04696843  0.05264105       0.001
   0.04696843  0.05871054  0.06141455       0.002
   0.04696843  0.07045265  0.07018806       0.002
   0.04696843  0.08219475  0.07896157       0.002
   0.04696843  0.09393686  0.08773508       0.002
   0.04696843  0.10567897  0.09650858       0.002
   0.04696843  0.11742108  0.10528209       0.002
   0.04696843 -0.09393686 -0.05264105       0.002
   0.04696843 -0.08219475 -0.04386754       0.002
   0.04696843 -0.07045265 -0.03509403       0.002
   0.04696843 -0.05871054 -0.02632052       0.002
   0.04696843 -0.04696843 -0.01754702       0.001
   0.04696843 -0.02348422  0.00000000       0.001
   0.04696843 -0.01174211  0.00877351       0.002
   0.04696843  0.00000000  0.01754702       0.001
   0.05871054  0.05871054  0.07018806       0.001
   0.05871054  0.07045265  0.07896157       0.002
   0.05871054  0.08219475  0.08773508       0.002
   0.05871054  0.09393686  0.09650858       0.002
   0.05871054  0.10567897  0.10528209       0.002
   0.05871054  0.11742108  0.11405560       0.002
   0.05871054 -0.09393686 -0.04386754       0.002
   0.05871054 -0.08219475 -0.03509403       0.002
   0.05871054 -0.07045265 -0.02632052       0.002
   0.05871054 -0.05871054 -0.01754702       0.001
   0.05871054 -0.03522632  0.00000000       0.001
   0.05871054 -0.02348422  0.00877351       0.002
   0.05871054 -0.01174211  0.01754702       0.002
   0.05871054  0.00000000  0.02632052       0.001
   0.07045265  0.07045265  0.08773508       0.001
   0.07045265  0.08219475  0.09650858       0.002
   0.07045265  0.09393686  0.10528209       0.002
   0.07045265  0.10567897  0.11405560       0.002
   0.07045265  0.11742108  0.12282911       0.002
   0.07045265 -0.09393686 -0.03509403       0.002
   0.07045265 -0.08219475 -0.02632052       0.002
   0.07045265 -0.07045265 -0.01754702       0.001
   0.07045265 -0.04696843  0.00000000       0.001
   0.07045265 -0.03522632  0.00877351       0.002
   0.07045265 -0.02348422  0.01754702       0.002
   0.07045265 -0.01174211  0.02632052       0.002
   0.07045265  0.00000000  0.03509403       0.001
   0.08219475  0.08219475  0.10528209       0.001
   0.08219475  0.09393686  0.11405560       0.002
   0.08219475  0.10567897  0.12282911       0.002
   0.08219475  0.11742108  0.13160261       0.002
   0.08219475 -0.09393686 -0.02632052       0.002
   0.08219475 -0.08219475 -0.01754702       0.001
   0.08219475 -0.05871054  0.00000000       0.001
   0.08219475 -0.04696843  0.00877351       0.002
   0.08219475 -0.03522632  0.01754702       0.002
   0.08219475 -0.02348422  0.02632052       0.002
   0.08219475 -0.01174211  0.03509403       0.002
   0.08219475  0.00000000  0.04386754       0.001
   0.09393686  0.09393686  0.12282911       0.001
   0.09393686  0.10567897  0.13160261       0.002
   0.09393686  0.11742108  0.14037612       0.002
   0.09393686 -0.09393686 -0.01754702       0.001
   0.09393686 -0.07045265  0.00000000       0.001
   0.09393686 -0.05871054  0.00877351       0.002
   0.09393686 -0.04696843  0.01754702       0.002
   0.09393686 -0.03522632  0.02632052       0.002
   0.09393686 -0.02348422  0.03509403       0.002
   0.09393686 -0.01174211  0.04386754       0.002
   0.09393686  0.00000000  0.05264105       0.001
   0.10567897  0.10567897  0.14037612       0.001
   0.10567897  0.11742108  0.14914963       0.001
   0.10567897 -0.08219475  0.00000000       0.001
   0.10567897 -0.07045265  0.00877351       0.002
   0.10567897 -0.05871054  0.01754702       0.002
   0.10567897 -0.04696843  0.02632052       0.002
   0.10567897 -0.03522632  0.03509403       0.002
   0.10567897 -0.02348422  0.04386754       0.002
   0.10567897 -0.01174211  0.05264105       0.002
   0.10567897  0.00000000  0.06141455       0.001
   0.11742108 -0.09393686  0.00000000       0.001
   0.11742108 -0.08219475  0.00877351       0.002
   0.11742108 -0.07045265  0.01754702       0.002
   0.11742108 -0.05871054  0.02632052       0.002
   0.11742108 -0.04696843  0.03509403       0.002
   0.11742108 -0.03522632  0.04386754       0.002
   0.11742108 -0.02348422  0.05264105       0.002
   0.11742108 -0.01174211  0.06141455       0.002
   0.11742108  0.00000000  0.07018806       0.001
  -0.09393686 -0.09393686 -0.15792314       0.001
  -0.09393686 -0.08219475 -0.14914963       0.002
  -0.09393686 -0.07045265 -0.14037612       0.002
  -0.09393686 -0.05871054 -0.13160261       0.002
  -0.09393686 -0.04696843 -0.12282911       0.002
  -0.09393686 -0.03522632 -0.11405560       0.002
  -0.09393686 -0.02348422 -0.10528209       0.002
  -0.09393686 -0.01174211 -0.09650858       0.002
  -0.09393686  0.00000000 -0.08773508       0.001
  -0.08219475 -0.08219475 -0.14037612       0.001
  -0.08219475 -0.07045265 -0.13160261       0.002
  -0.08219475 -0.05871054 -0.12282911       0.002
  -0.08219475 -0.04696843 -0.11405560       0.002
  -0.08219475 -0.03522632 -0.10528209       0.002
  -0.08219475 -0.02348422 -0.09650858       0.002
  -0.08219475 -0.01174211 -0.08773508       0.002
  -0.08219475  0.00000000 -0.07896157       0.001
  -0.07045265 -0.07045265 -0.12282911       0.001
  -0.07045265 -0.05871054 -0.11405560       0.002
  -0.07045265 -0.04696843 -0.10528209       0.002
  -0.07045265 -0.03522632 -0.09650858       0.002
  -0.07045265 -0.02348422 -0.08773508       0.002
  -0.07045265 -0.01174211 -0.07896157       0.002
  -0.07045265  0.00000000 -0.07018806       0.001
  -0.05871054 -0.05871054 -0.10528209       0.001
  -0.05871054 -0.04696843 -0.09650858       0.002
  -0.05871054 -0.03522632 -0.08773508       0.002
  -0.05871054 -0.02348422 -0.07896157       0.002
  -0.05871054 -0.01174211 -0.07018806       0.002
  -0.05871054  0.00000000 -0.06141455       0.001
  -0.04696843 -0.04696843 -0.08773508       0.001
  -0.04696843 -0.03522632 -0.07896157       0.002
  -0.04696843 -0.02348422 -0.07018806       0.002
  -0.04696843 -0.01174211 -0.06141455       0.002
  -0.04696843  0.00000000 -0.05264105       0.001
  -0.03522632 -0.03522632 -0.07018806       0.001
  -0.03522632 -0.02348422 -0.06141455       0.002
  -0.03522632 -0.01174211 -0.05264105       0.002
  -0.03522632  0.00000000 -0.04386754       0.001
  -0.02348422 -0.02348422 -0.05264105       0.001
  -0.02348422 -0.01174211 -0.04386754       0.002
  -0.02348422  0.00000000 -0.03509403       0.001
  -0.01174211 -0.01174211 -0.03509403       0.001
  -0.01174211  0.00000000 -0.02632052       0.001
   0.00000000  0.00000000 -0.01754702       0.000
   0.04696843  0.04696843  0.03509403       0.001
   0.04696843  0.05871054  0.04386754       0.002
   0.04696843  0.07045265  0.05264105       0.002
   0.04696843  0.08219475  0.06141455       0.002
   0.04696843  0.09393686  0.07018806       0.002
   0.04696843  0.10567897  0.07896157       0.002
   0.04696843  0.00000000  0.00000000       0.001
   0.05871054  0.05871054  0.05264105       0.001
   0.05871054  0.07045265  0.06141455       0.002
   0.05871054  0.08219475  0.07018806       0.002
   0.05871054  0.09393686  0.07896157       0.002
   0.05871054  0.10567897  0.08773508       0.002
   0.05871054  0.11742108  0.09650858       0.002
   0.05871054  0.12916318  0.10528209       0.002
   0.05871054 -0.08219475 -0.05264105       0.002
   0.05871054 -0.07045265 -0.04386754       0.002
   0.05871054 -0.05871054 -0.03509403       0.001
   0.05871054 -0.01174211  0.00000000       0.001
   0.05871054  0.00000000  0.00877351       0.001
   0.07045265  0.07045265  0.07018806       0.001
   0.07045265  0.08219475  0.07896157       0.002
   0.07045265  0.09393686  0.08773508       0.002
   0.07045265  0.10567897  0.09650858       0.002
   0.07045265  0.11742108  0.10528209       0.002
   0.07045265  0.12916318  0.11405560       0.002
   0.07045265 -0.08219475 -0.04386754       0.002
   0.07045265 -0.07045265 -0.03509403       0.001
   0.07045265 -0.02348422  0.00000000       0.001
   0.07045265 -0.01174211  0.00877351       0.002
   0.07045265  0.00000000  0.01754702       0.001
   0.08219475  0.08219475  0.08773508       0.001
   0.08219475  0.09393686  0.09650858       0.002
   0.08219475  0.10567897  0.10528209       0.002
   0.08219475  0.11742108  0.11405560       0.002
   0.08219475  0.12916318  0.12282911       0.002
   0.08219475 -0.08219475 -0.03509403       0.001
   0.08219475 -0.03522632  0.00000000       0.001
   0.08219475 -0.02348422  0.00877351       0.002
   0.08219475 -0.01174211  0.01754702       0.002
   0.08219475  0.00000000  0.02632052       0.001
   0.09393686  0.09393686  0.10528209       0.001
   0.09393686  0.10567897  0.11405560       0.002
   0.09393686  0.11742108  0.12282911       0.002
   0.09393686  0.12916318  0.13160261       0.001
   0.09393686 -0.04696843  0.00000000       0.001
   0.09393686 -0.03522632  0.00877351       0.002
   0.09393686 -0.02348422  0.01754702       0.002
   0.09393686 -0.01174211  0.02632052       0.002
   0.09393686  0.00000000  0.03509403       0.001
   0.10567897  0.10567897  0.12282911       0.001
   0.10567897  0.11742108  0.13160261       0.001
   0.10567897 -0.05871054  0.00000000       0.001
   0.10567897 -0.04696843  0.00877351       0.002
   0.10567897 -0.03522632  0.01754702       0.002
   0.10567897 -0.02348422  0.02632052       0.002
   0.10567897 -0.01174211  0.03509403       0.002
   0.10567897  0.00000000  0.04386754       0.001
   0.11742108 -0.07045265  0.00000000       0.001
   0.11742108 -0.05871054  0.00877351       0.002
   0.11742108 -0.04696843  0.01754702       0.002
   0.11742108 -0.03522632  0.02632052       0.002
   0.11742108 -0.02348422  0.03509403       0.002
   0.11742108 -0.01174211  0.04386754       0.002
   0.11742108  0.00000000  0.05264105       0.001
   0.12916318 -0.08219475  0.00000000       0.001
   0.12916318 -0.07045265  0.00877351       0.002
   0.12916318 -0.05871054  0.01754702       0.002
   0.12916318 -0.04696843  0.02632052       0.002
   0.12916318 -0.03522632  0.03509403       0.002
   0.12916318 -0.02348422  0.04386754       0.002
   0.12916318 -0.01174211  0.05264105       0.002
   0.12916318  0.00000000  0.06141455       0.001
  -0.08219475 -0.08219475 -0.15792314       0.001
  -0.08219475 -0.07045265 -0.14914963       0.002
  -0.08219475 -0.05871054 -0.14037612       0.002
  -0.08219475 -0.04696843 -0.13160261       0.002
  -0.08219475 -0.03522632 -0.12282911       0.002
  -0.08219475 -0.02348422 -0.11405560       0.002
  -0.08219475 -0.01174211 -0.10528209       0.002
  -0.08219475  0.00000000 -0.09650858       0.001
  -0.07045265 -0.07045265 -0.14037612       0.001
  -0.07045265 -0.05871054 -0.13160261       0.002
  -0.07045265 -0.04696843 -0.12282911       0.002
  -0.07045265 -0.03522632 -0.11405560       0.002
  -0.07045265 -0.02348422 -0.10528209       0.002
  -0.07045265 -0.01174211 -0.09650858       0.002
  -0.07045265  0.00000000 -0.08773508       0.001
  -0.05871054 -0.05871054 -0.12282911       0.001
  -0.05871054 -0.04696843 -0.11405560       0.002
  -0.05871054 -0.03522632 -0.10528209       0.002
  -0.05871054 -0.02348422 -0.09650858       0.002
  -0.05871054 -0.01174211 -0.08773508       0.002
  -0.05871054  0.00000000 -0.07896157       0.001
  -0.04696843 -0.04696843 -0.10528209       0.001
  -0.04696843 -0.03522632 -0.09650858       0.002
  -0.04696843 -0.02348422 -0.08773508       0.002
  -0.04696843 -0.01174211 -0.07896157       0.002
  -0.04696843  0.00000000 -0.07018806       0.001
  -0.03522632 -0.03522632 -0.08773508       0.001
  -0.03522632 -0.02348422 -0.07896157       0.002
  -0.03522632 -0.01174211 -0.07018806       0.002
  -0.03522632  0.00000000 -0.06141455       0.001
  -0.02348422 -0.02348422 -0.07018806       0.001
  -0.02348422 -0.01174211 -0.06141455       0.002
  -0.02348422  0.00000000 -0.05264105       0.001
  -0.01174211 -0.01174211 -0.05264105       0.001
  -0.01174211  0.00000000 -0.04386754       0.001
   0.00000000  0.00000000 -0.03509403       0.000
   0.07045265  0.07045265  0.05264105       0.001
   0.07045265  0.08219475  0.06141455       0.002
   0.07045265  0.09393686  0.07018806       0.002
   0.07045265  0.10567897  0.07896157       0.002
   0.07045265  0.00000000  0.00000000       0.001
   0.08219475  0.08219475  0.07018806       0.001
   0.08219475  0.09393686  0.07896157       0.002
   0.08219475  0.10567897  0.08773508       0.002
   0.08219475  0.11742108  0.09650858       0.002
   0.08219475  0.12916318  0.10528209       0.002
   0.08219475  0.14090529  0.11405560       0.001
   0.08219475 -0.01174211  0.00000000       0.001
   0.08219475  0.00000000  0.00877351       0.001
[...]

 k-point 541 :      -0.3684   -0.4211    0.3684
  band No.  band energies     occupation 
      1       9.5639      0.00000
      2      12.2863      0.00000
      3      13.8682      0.00000
      4      14.8592      0.00000
      5      15.1009      0.00000
      6      19.4880      0.00000
      7      23.6576      0.00000
      8      23.9762      0.00000
      9      25.3194      0.00000
     10      25.5557      0.00000
     11      26.8438      0.00000
     12      28.1053      0.00000
     13      28.3122      0.00000
     14      28.4321      0.00000
     15      28.5461      0.00000
     16      29.7765      0.00000
     17      31.7387      0.00000
     18      32.6739      0.00000
     19      33.5654      0.00000
     20      35.4779      0.00000
     21      35.6962      0.00000
     22      38.1443      0.00000
     23      40.0119      0.00000
     24      40.4471      0.00000
     25      40.5194      0.00000
     26      40.6263      0.00000
     27      42.2627      0.00000
     28      42.6592      0.00000
     29      42.7703      0.00000
     30      42.8622      0.00000
     31      44.7116      0.00000
     32      45.0208      0.00000
     33      45.6714      0.00000
     34      46.0818      0.00000

 k-point 542 :      -0.3684   -0.3684    0.3684
  band No.  band energies     occupation 
      1       9.2771      0.00000
      2      12.4864      0.00000
      3      14.3229      0.00000
      4      14.9107      0.00000
      5      15.1551      0.00000
      6      19.4852      0.00000
      7      23.9172      0.00000
      8      23.9326      0.00000
      9      24.4961      0.00000
     10      24.8828      0.00000
     11      26.3687      0.00000
     12      27.5219      0.00000
     13      27.7544      0.00000
     14      29.0498      0.00000
     15      29.0889      0.00000
     16      29.7019      0.00000
     17      31.9555      0.00000
     18      32.7599      0.00000
     19      33.7358      0.00000
     20      36.3904      0.00000
     21      36.6111      0.00000
     22      38.4651      0.00000
     23      38.8173      0.00000
     24      40.1923      0.00000
     25      40.2686      0.00000
     26      41.4826      0.00000
     27      41.9830      0.00000
     28      43.3813      0.00000
     29      43.5632      0.00000
     30      43.7075      0.00000
     31      44.1181      0.00000
     32      44.4470      0.00000
     33      46.0734      0.00000
     34      47.5460      0.00000

 k-point 543 :      -0.4211    0.4211    0.4211
  band No.  band energies     occupation 
      1      10.4426      0.00000
      2      11.4855      0.00000
      3      12.9224      0.00000
      4      14.9164      0.00000
      5      15.2764      0.00000
      6      20.0204      0.00000
      7      22.9663      0.00000
      8      23.5845      0.00000
      9      25.7198      0.00000
     10      26.4674      0.00000
     11      27.6922      0.00000
     12      27.7128      0.00000
     13      28.7906      0.00000
     14      28.9781      0.00000
     15      30.3937      0.00000
     16      31.1072      0.00000
     17      31.5326      0.00000
     18      32.0361      0.00000
     19      32.7608      0.00000
     20      33.0634      0.00000
     21      36.2300      0.00000
     22      36.6893      0.00000
     23      38.3956      0.00000
     24      39.4823      0.00000
     25      39.6345      0.00000
     26      40.2082      0.00000
     27      41.1353      0.00000
     28      41.2411      0.00000
     29      44.0243      0.00000
     30      44.4746      0.00000
     31      44.5045      0.00000
     32      44.9510      0.00000
     33      44.9851      0.00000
     34      45.5712      0.00000

 k-point 544 :      -0.4737    0.4737    0.4211
  band No.  band energies     occupation 
      1      10.3645      0.00000
      2      11.7998      0.00000
      3      12.8504      0.00000
      4      14.5078      0.00000
      5      15.3984      0.00000
      6      19.6672      0.00000
      7      23.1663      0.00000
      8      24.6145      0.00000
      9      25.9726      0.00000
     10      26.5027      0.00000
     11      27.3439      0.00000
     12      28.0290      0.00000
     13      28.4301      0.00000
     14      29.2506      0.00000
     15      29.3553      0.00000
     16      30.7115      0.00000
     17      31.6153      0.00000
     18      31.6376      0.00000
     19      32.3942      0.00000
     20      33.1619      0.00000
     21      36.3613      0.00000
     22      37.4963      0.00000
     23      38.0728      0.00000
     24      39.7372      0.00000
     25      40.1025      0.00000
     26      40.7428      0.00000
     27      41.9558      0.00000
     28      42.4589      0.00000
     29      43.4476      0.00000
     30      43.7518      0.00000
     31      44.6570      0.00000
     32      44.7232      0.00000
     33      45.4736      0.00000
     34      45.6785      0.00000

 k-point 545 :      -0.4211    0.4737    0.4211
  band No.  band energies     occupation 
      1      10.2821      0.00000
      2      11.8561      0.00000
      3      12.9197      0.00000
      4      14.7996      0.00000
      5      15.0739      0.00000
      6      19.6054      0.00000
      7      23.5809      0.00000
      8      24.1016      0.00000
      9      26.4598      0.00000
     10      26.7597      0.00000
     11      27.0584      0.00000
     12      27.6283      0.00000
     13      27.9776      0.00000
     14      29.6149      0.00000
     15      29.7625      0.00000
     16      30.6177      0.00000
     17      30.9173      0.00000
     18      31.4047      0.00000
     19      33.0254      0.00000
     20      33.2577      0.00000
     21      35.9488      0.00000
     22      37.5083      0.00000
     23      38.3716      0.00000
     24      40.8038      0.00000
     25      40.8826      0.00000
     26      40.9895      0.00000
     27      41.0936      0.00000
     28      41.3850      0.00000
     29      43.8115      0.00000
     30      44.5448      0.00000
     31      44.6308      0.00000
     32      44.7094      0.00000
     33      44.9373      0.00000
     34      45.2920      0.00000

 k-point 546 :      -0.4737   -0.4737    0.4211
  band No.  band energies     occupation 
      1      10.2431      0.00000
      2      12.0401      0.00000
      3      12.8836      0.00000
      4      14.5584      0.00000
      5      15.1492      0.00000
      6      19.4246      0.00000
      7      23.7775      0.00000
      8      24.8455      0.00000
      9      25.9272      0.00000
     10      26.6950      0.00000
     11      27.6477      0.00000
     12      27.7063      0.00000
     13      27.8073      0.00000
     14      28.9115      0.00000
     15      29.9262      0.00000
     16      30.3830      0.00000
     17      30.9731      0.00000
     18      31.1324      0.00000
     19      32.8088      0.00000
     20      33.3199      0.00000
     21      35.7825      0.00000
     22      38.2066      0.00000
     23      38.4187      0.00000
     24      40.0169      0.00000
     25      41.2678      0.00000
     26      41.6114      0.00000
     27      41.9535      0.00000
     28      42.8964      0.00000
     29      43.4722      0.00000
     30      43.7469      0.00000
     31      43.8993      0.00000
     32      43.9727      0.00000
     33      45.0011      0.00000
     34      45.6178      0.00000

 k-point 547 :      -0.4211   -0.4737    0.4211
  band No.  band energies     occupation 
      1      10.0552      0.00000
      2      12.1501      0.00000
      3      13.1032      0.00000
      4      14.7287      0.00000
      5      14.9700      0.00000
      6      19.3713      0.00000
      7      24.1227      0.00000
      8      24.4372      0.00000
      9      25.7836      0.00000
     10      27.1228      0.00000
     11      27.2393      0.00000
     12      27.3666      0.00000
     13      27.6979      0.00000
     14      29.0382      0.00000
     15      29.8198      0.00000
     16      30.0636      0.00000
     17      30.8288      0.00000
     18      31.0737      0.00000
     19      33.6893      0.00000
     20      33.8975      0.00000
     21      35.0369      0.00000
     22      38.5707      0.00000
     23      38.8692      0.00000
     24      40.8014      0.00000
     25      40.8662      0.00000
     26      42.1020      0.00000
     27      42.1274      0.00000
     28      42.4698      0.00000
     29      42.5239      0.00000
     30      43.2545      0.00000
     31      44.8458      0.00000
     32      44.8646      0.00000
     33      45.0475      0.00000
     34      46.1882      0.00000

 k-point 548 :      -0.4211   -0.4211    0.4211
  band No.  band energies     occupation 
      1       9.8046      0.00000
      2      12.3047      0.00000
      3      13.4307      0.00000
      4      14.7371      0.00000
      5      14.9809      0.00000
      6      19.3306      0.00000
      7      24.4282      0.00000
      8      24.4393      0.00000
      9      24.9987      0.00000
     10      26.4261      0.00000
     11      26.8097      0.00000
     12      28.1748      0.00000
     13      28.2186      0.00000
     14      28.8323      0.00000
     15      29.0223      0.00000
     16      29.2614      0.00000
     17      31.1562      0.00000
     18      31.8196      0.00000
     19      34.2217      0.00000
     20      34.5161      0.00000
     21      34.7299      0.00000
     22      38.9615      0.00000
     23      39.6390      0.00000
     24      40.5963      0.00000
     25      40.6809      0.00000
     26      41.2118      0.00000
     27      42.4562      0.00000
     28      42.8446      0.00000
     29      43.1990      0.00000
     30      43.3812      0.00000
     31      43.8198      0.00000
     32      44.2690      0.00000
     33      45.3033      0.00000
     34      46.7384      0.00000

 k-point 549 :      -0.4737    0.4737    0.4737
  band No.  band energies     occupation 
      1      10.2876      0.00000
      2      12.1047      0.00000
      3      12.7796      0.00000
      4      14.6850      0.00000
      5      14.9262      0.00000
      6      19.3320      0.00000
      7      24.3360      0.00000
      8      24.6473      0.00000
      9      25.9960      0.00000
     10      27.0607      0.00000
     11      27.3908      0.00000
     12      27.4151      0.00000
     13      28.3361      0.00000
     14      28.7350      0.00000
     15      29.5191      0.00000
     16      30.8150      0.00000
     17      30.8674      0.00000
     18      31.1390      0.00000
     19      32.5500      0.00000
     20      32.7302      0.00000
     21      36.0501      0.00000
     22      37.7606      0.00000
     23      38.7572      0.00000
     24      40.9517      0.00000
     25      41.0352      0.00000
     26      41.8126      0.00000
     27      42.0820      0.00000
     28      42.4782      0.00000
     29      43.3011      0.00000
     30      44.5359      0.00000
     31      44.5794      0.00000
     32      44.7994      0.00000
     33      44.8111      0.00000
     34      45.7012      0.00000

 k-point 550 :      -0.4737   -0.4737    0.4737
  band No.  band energies     occupation 
      1      10.2047      0.00000
      2      12.2138      0.00000
      3      12.8481      0.00000
      4      14.6500      0.00000
      5      14.8935      0.00000
      6      19.2525      0.00000
      7      24.8069      0.00000
      8      24.8126      0.00000
      9      25.3665      0.00000
     10      27.1097      0.00000
     11      27.6138      0.00000
     12      27.6627      0.00000
     13      27.9763      0.00000
     14      28.2808      0.00000
     15      30.0831      0.00000
     16      30.4607      0.00000
     17      30.6762      0.00000
     18      30.7190      0.00000
     19      32.8903      0.00000
     20      33.0853      0.00000
     21      35.6242      0.00000
     22      38.0463      0.00000
     23      39.3218      0.00000
     24      40.8625      0.00000
     25      40.9534      0.00000
     26      42.3009      0.00000
     27      42.6305      0.00000
     28      43.1080      0.00000
     29      43.2903      0.00000
     30      43.5754      0.00000
     31      43.8227      0.00000
     32      44.1792      0.00000
     33      44.8504      0.00000
     34      44.8531      0.00000


--------------------------------------------------------------------------------------------------------


 soft charge-density along one line, spin component           1
         0         1         2         3         4         5         6         7         8         9
 total charge-density along one line
 
 soft charge-density along one line, spin component           2
         0         1         2         3         4         5         6         7         8         9
 total charge-density along one line
 
 pseudopotential strength for first ion, spin component:           1
 -2.388  -0.016   0.000  -0.000   0.000
 -0.016   0.049   0.000  -0.000   0.000
  0.000   0.000  -0.342  -0.000  -0.000
 -0.000  -0.000  -0.000  -0.342  -0.000
  0.000   0.000  -0.000  -0.000  -0.342
 pseudopotential strength for first ion, spin component:           2
 -0.644   0.158   0.000   0.000   0.000
  0.158   0.055   0.000   0.000   0.000
  0.000   0.000  -0.488   0.000   0.000
  0.000   0.000   0.000  -0.488   0.000
  0.000   0.000   0.000   0.000  -0.488
 total augmentation occupancy for first ion, spin component:           1
  1.104  -0.024  -0.000  -0.000  -0.000
 -0.024   0.002  -0.000  -0.000  -0.000
 -0.000  -0.000   0.000   0.000   0.000
 -0.000  -0.000   0.000   0.000   0.000
 -0.000  -0.000   0.000   0.000   0.000
 total augmentation occupancy for first ion, spin component:           2
  1.104  -0.024  -0.000  -0.000  -0.000
 -0.024   0.002  -0.000  -0.000  -0.000
 -0.000  -0.000   0.000   0.000   0.000
 -0.000  -0.000   0.000   0.000   0.000
 -0.000  -0.000   0.000   0.000   0.000


------------------------ aborting loop because EDIFF is reached ----------------------------------------


 


 total charge     
 
# of ion     s       p       d       tot
----------------------------------------
  1        0.387   0.000   0.000   0.387
  2        0.387   0.000   0.000   0.387
------------------------------------------------
tot        0.774   0.000   0.000   0.774
 


 magnetization (x)
 
# of ion     s       p       d       tot
----------------------------------------
  1        0.387   0.000   0.000   0.387
  2        0.387   0.000   0.000   0.387
------------------------------------------------
tot        0.774   0.000   0.000   0.774
 


--------------------------------------------------------------------------------------------------------


    CHARGE:  VPU time    0.09: CPU time    0.09
    FORLOC:  VPU time    0.00: CPU time    0.00
    FORNL :  VPU time    1.05: CPU time    1.05
    STRESS:  VPU time    3.57: CPU time    3.58
    FORHAR:  VPU time    0.00: CPU time    0.00
    MIXING:  VPU time    0.00: CPU time    0.00


--------------------------------------------------------------------------------------------------------



  FREE ENERGIE OF THE ION-ELECTRON SYSTEM (eV)
  ---------------------------------------------------
  free  energy   TOTEN  =        -2.163790 eV

  energy  without entropy=       -2.163790  energy(sigma->0) =       -2.163790
 

  FORCE on cell =-STRESS in cart. coord.  units (eV/reduce length):
  Direction    X        Y        Z        XY       YZ       ZX
  --------------------------------------------------------------------------------------
  Alpha Z      0.16      0.16      0.16
  Ewald       -4.62     -4.62     -3.88      0.00     -0.00     -0.00
  Hartree      1.68      1.68      2.12     -0.00     -0.00     -0.00
  E(xc)       -5.55     -5.55     -5.53     -0.00     -0.00     -0.00
  Local       -4.73     -4.73     -5.89     -0.00     -0.00     -0.00
  n-local     -3.78     -3.78     -3.78      0.00      0.00      0.00
  augment      0.20      0.20      0.20     -0.00      0.00      0.00
  Kinetic     16.77     16.57     16.75     -0.11      0.33      0.32
  -------------------------------------------------------------------------------------
  Total        0.05      0.05      0.15      0.00      0.00      0.00
  in kB        1.22      1.22      4.10      0.00      0.00      0.00
  external pressure =        2.18 kB  Pullay stress =        0.00 kB


 VOLUME and BASIS-vectors are now :
 -----------------------------------------------------------------------------
  energy-cutoff  :      350.00
  volume of cell :       60.26
      direct lattice vectors                 reciprocal lattice vectors
    -2.241147012  2.241147012  2.999460483     0.000000000  0.223100045  0.166696645
     2.241147012 -2.241147012  2.999460483     0.223100045  0.000000000  0.166696645
     2.241147012  2.241147012 -2.999460483     0.223100045  0.223100045  0.000000000

  length of vectors
     4.363741863  4.363741863  4.363741863     0.278498477  0.278498477  0.315511110


 FORCES acting on ions
    electron-ion (+dipol)            ewald-force                    non-local-force                 convergence-correction
 -----------------------------------------------------------------------------------------------
   0.230E-07 0.230E-07 0.109E-02   0.637E-17 -.352E-16 -.129E-02   0.000E+00 -.275E-20 -.165E-04   0.315E-10 0.315E-10 0.508E-08
   -.230E-07 -.230E-07 -.109E-02   -.182E-18 0.378E-16 0.129E-02   -.212E-21 -.424E-21 0.165E-04   -.315E-10 -.315E-10 -.508E-08
 -----------------------------------------------------------------------------------------------
   -.586E-13 -.110E-12 0.136E-12   0.619E-17 0.266E-17 -.113E-16   -.212E-21 -.318E-20 -.339E-20   -.345E-16 -.534E-16 0.329E-16
 
 
 POSITION                                       TOTAL-FORCE (eV/Angst)
 -----------------------------------------------------------------------------------
      0.00000      0.00000      1.50021         0.000000      0.000000     -0.000212
      0.00000      0.00000      4.49871        -0.000000     -0.000000      0.000212
 -----------------------------------------------------------------------------------
    total drift:                               -0.000000     -0.000000      0.000000


--------------------------------------------------------------------------------------------------------



 mean value of Nose-termostat <S>:     1.000 mean value of <T> :     0.000
 mean temperature <T/S>/<1/S>  :     0.000

     LOOP+:  VPU time 1241.45: CPU time 1286.07
 


 total charge     
 
# of ion     s       p       d       tot
----------------------------------------
  1        0.387   0.000   0.000   0.387
  2        0.387   0.000   0.000   0.387
------------------------------------------------
tot        0.774   0.000   0.000   0.774
 


 magnetization (x)
 
# of ion     s       p       d       tot
----------------------------------------
  1        0.387   0.000   0.000   0.387
  2        0.387   0.000   0.000   0.387
------------------------------------------------
tot        0.774   0.000   0.000   0.774
 
 BZINTS: Fermi energy: -5.425026;  2.000000 electrons
         Band energy: -13.394208;  BLOECHL correction:  0.000000
  
  
 General timing and accounting informations for this job:
 ========================================================
  
                  Total CPU time used (sec):     1265.776
                            User time (sec):     1229.664
                          System time (sec):       36.112
                         Elapsed time (sec):     1318.906
  
                   Maximum memory used (kb):       50232.
                   Average memory used (kb):           0.
  
                          Minor page faults:         8776
                          Major page faults:            0
                 Voluntary context switches:          690
