 vasp.4.6.35 3Apr08 complex 
 executed on             LinuxIFC date 2014.06.15  02:55:26
 running on   16 nodes
 distr:  one band on    8 nodes,    2 groups


--------------------------------------------------------------------------------------------------------


 INCAR:
 POTCAR:   PAW_PBE C 08Apr2002                    
 POTCAR:   PAW_PBE Co 06Sep2000                   
 POTCAR:   PAW_PBE H 15Jun2001                    
 POTCAR:   PAW_PBE Li_sv 23Jan2001                
 POTCAR:   PAW_PBE N 08Apr2002                    
 POTCAR:   PAW_PBE O 08Apr2002                    
 POTCAR:   PAW_PBE C 08Apr2002                    
   VRHFIN =C: s2p2                                                              
   LEXCH  = PE                                                                  
   EATOM  =   147.1560 eV,   10.8157 Ry                                         
                                                                                
   TITEL  = PAW_PBE C 08Apr2002                                                 
   LULTRA =        F    use ultrasoft PP ?                                      
   IUNSCR =        0    unscreen: 0-lin 1-nonlin 2-no                           
   RPACOR =     .000    partial core radius                                     
   POMASS =   12.011; ZVAL   =    4.000    mass and valenz                      
   RCORE  =    1.500    outmost cutoff radius                                   
   RWIGS  =    1.630; RWIGS  =     .863    wigner-seitz radius (au A)           
   ENMAX  =  400.000; ENMIN  =  300.000 eV                                      
   ICORE  =        2    local potential                                         
   LCOR   =        T    correct aug charges                                     
   LPAW   =        T    paw PP                                                  
   EAUG   =  644.873                                                            
   DEXC   =     .000                                                            
   RMAX   =    2.266    core radius for proj-oper                               
   RAUG   =    1.300    factor for augmentation sphere                          
   RDEP   =    1.501    radius for radial grids                                 
   RDEPT  =    1.300    core radius for aug-charge                              
   QCUT   =   -5.516; QGAM   =   11.032    optimization parameters              
                                                                                
   Description                                                                  
     l     E      TYP  RCUT    TYP  RCUT                                        
     0   .000     23  1.200                                                     
     0   .000     23  1.200                                                     
     1   .000     23  1.500                                                     
     1  2.500     23  1.500                                                     
     2   .000      7  1.500                                                     
  local pseudopotential read in
  atomic valenz-charges read in
  non local Contribution for L=           0  read in
    real space projection operators read in
  non local Contribution for L=           0  read in
    real space projection operators read in
  non local Contribution for L=           1  read in
    real space projection operators read in
  non local Contribution for L=           1  read in
    real space projection operators read in
    PAW grid and wavefunctions read in
 
   number of l-projection  operators is LMAX  =           4
   number of lm-projection operators is LMMAX =           8
 
 POTCAR:   PAW_PBE Co 06Sep2000                   
   VRHFIN =Co: d8 s1                                                            
   LEXCH  = PE                                                                  
   EATOM  =   813.5563 eV,   59.7947 Ry                                         
                                                                                
   TITEL  = PAW_PBE Co 06Sep2000                                                
   LULTRA =        F    use ultrasoft PP ?                                      
   IUNSCR =        1    unscreen: 0-lin 1-nonlin 2-no                           
   RPACOR =    2.000    partial core radius                                     
   POMASS =   58.933; ZVAL   =    9.000    mass and valenz                      
   RCORE  =    2.300    outmost cutoff radius                                   
   RWIGS  =    2.460; RWIGS  =    1.302    wigner-seitz radius (au A)           
   ENMAX  =  267.969; ENMIN  =  200.977 eV                                      
   RCLOC  =    1.697    cutoff for local pot                                    
   LCOR   =        T    correct aug charges                                     
   LPAW   =        T    paw PP                                                  
   EAUG   =  477.818                                                            
   DEXC   =    -.016                                                            
   RMAX   =    2.817    core radius for proj-oper                               
   RAUG   =    1.300    factor for augmentation sphere                          
   RDEP   =    2.393    radius for radial grids                                 
   QCUT   =   -4.438; QGAM   =    8.876    optimization parameters              
                                                                                
   Description                                                                  
     l     E      TYP  RCUT    TYP  RCUT                                        
     2   .000     23  2.300                                                     
     2   .000     23  2.300                                                     
     0   .000     23  2.300                                                     
     0   .000     23  2.300                                                     
     1  -.200     23  2.300                                                     
     1   .000     23  2.300                                                     
     3   .000      7   .000                                                     
  local pseudopotential read in
  partial core-charges read in
  atomic valenz-charges read in
  non local Contribution for L=           2  read in
    real space projection operators read in
  non local Contribution for L=           2  read in
    real space projection operators read in
  non local Contribution for L=           0  read in
    real space projection operators read in
  non local Contribution for L=           0  read in
    real space projection operators read in
  non local Contribution for L=           1  read in
    real space projection operators read in
  non local Contribution for L=           1  read in
    real space projection operators read in
    PAW grid and wavefunctions read in
 
   number of l-projection  operators is LMAX  =           6
   number of lm-projection operators is LMMAX =          18
 
 POTCAR:   PAW_PBE H 15Jun2001                    
   VRHFIN =H: ultrasoft test                                                    
   LEXCH  = PE                                                                  
   EATOM  =    12.4884 eV,     .9179 Ry                                         
                                                                                
   TITEL  = PAW_PBE H 15Jun2001                                                 
   LULTRA =        F    use ultrasoft PP ?                                      
   IUNSCR =        0    unscreen: 0-lin 1-nonlin 2-no                           
   RPACOR =     .000    partial core radius                                     
   POMASS =    1.000; ZVAL   =    1.000    mass and valenz                      
   RCORE  =    1.100    outmost cutoff radius                                   
   RWIGS  =     .700; RWIGS  =     .370    wigner-seitz radius (au A)           
   ENMAX  =  250.000; ENMIN  =  200.000 eV                                      
   RCLOC  =     .701    cutoff for local pot                                    
   LCOR   =        T    correct aug charges                                     
   LPAW   =        T    paw PP                                                  
   EAUG   =  400.000                                                            
   RMAX   =    2.174    core radius for proj-oper                               
   RAUG   =    1.200    factor for augmentation sphere                          
   RDEP   =    1.112    radius for radial grids                                 
   QCUT   =   -5.749; QGAM   =   11.498    optimization parameters              
                                                                                
   Description                                                                  
     l     E      TYP  RCUT    TYP  RCUT                                        
     0   .000     23  1.100                                                     
     0   .500     23  1.100                                                     
     1  -.300     23  1.100                                                     
  local pseudopotential read in
  atomic valenz-charges read in
  non local Contribution for L=           0  read in
    real space projection operators read in
  non local Contribution for L=           0  read in
    real space projection operators read in
  non local Contribution for L=           1  read in
    real space projection operators read in
    PAW grid and wavefunctions read in
 
   number of l-projection  operators is LMAX  =           3
   number of lm-projection operators is LMMAX =           5
 
 POTCAR:   PAW_PBE Li_sv 23Jan2001                
   VRHFIN =Li: 1s2s2p                                                           
   LEXCH  = PE                                                                  
   EATOM  =   202.7858 eV,   14.9043 Ry                                         
                                                                                
   TITEL  = PAW_PBE Li_sv 23Jan2001                                             
   LULTRA =        F    use ultrasoft PP ?                                      
   IUNSCR =        0    unscreen: 0-lin 1-nonlin 2-no                           
   RPACOR =     .000    partial core radius                                     
   POMASS =    7.010; ZVAL   =    3.000    mass and valenz                      
   RCORE  =    2.050    outmost cutoff radius                                   
   RWIGS  =    2.050; RWIGS  =    1.085    wigner-seitz radius (au A)           
   ENMAX  =  271.649; ENMIN  =  203.737 eV                                      
   ICORE  =        2    local potential                                         
   LCOR   =        T    correct aug charges                                     
   LPAW   =        T    paw PP                                                  
   EAUG   =  428.394                                                            
   RMAX   =    2.797    core radius for proj-oper                               
   RAUG   =    1.300    factor for augmentation sphere                          
   RDEP   =    2.094    radius for radial grids                                 
   RDEPT  =    1.550    core radius for aug-charge                              
   QCUT   =   -4.468; QGAM   =    8.937    optimization parameters              
                                                                                
   Description                                                                  
     l     E      TYP  RCUT    TYP  RCUT                                        
     0   .000     23  1.550                                                     
     0   .000     23  2.050                                                     
     0   .000     23  1.550                                                     
     0   .000     23  2.050                                                     
     1  -.200     23  2.050                                                     
     1  1.500     23  2.050                                                     
     2   .000      7  1.550                                                     
  local pseudopotential read in
  atomic valenz-charges read in
  non local Contribution for L=           0  read in
    real space projection operators read in
  non local Contribution for L=           0  read in
    real space projection operators read in
  non local Contribution for L=           1  read in
    real space projection operators read in
  non local Contribution for L=           1  read in
    real space projection operators read in
    PAW grid and wavefunctions read in
 
   number of l-projection  operators is LMAX  =           4
   number of lm-projection operators is LMMAX =           8
 
 POTCAR:   PAW_PBE N 08Apr2002                    
   VRHFIN =N: s2p3                                                              
   LEXCH  = PE                                                                  
   EATOM  =   264.5486 eV,   19.4438 Ry                                         
                                                                                
   TITEL  = PAW_PBE N 08Apr2002                                                 
   LULTRA =        F    use ultrasoft PP ?                                      
   IUNSCR =        0    unscreen: 0-lin 1-nonlin 2-no                           
   RPACOR =     .000    partial core radius                                     
   POMASS =   14.001; ZVAL   =    5.000    mass and valenz                      
   RCORE  =    1.500    outmost cutoff radius                                   
   RWIGS  =    1.400; RWIGS  =     .741    wigner-seitz radius (au A)           
   ENMAX  =  400.000; ENMIN  =  300.000 eV                                      
   ICORE  =        2    local potential                                         
   LCOR   =        T    correct aug charges                                     
   LPAW   =        T    paw PP                                                  
   EAUG   =  627.112                                                            
   DEXC   =     .000                                                            
   RMAX   =    2.247    core radius for proj-oper                               
   RAUG   =    1.300    factor for augmentation sphere                          
   RDEP   =    1.514    radius for radial grids                                 
   QCUT   =   -5.562; QGAM   =   11.124    optimization parameters              
                                                                                
   Description                                                                  
     l     E      TYP  RCUT    TYP  RCUT                                        
     0   .000     23  1.200                                                     
     0   .000     23  1.200                                                     
     1   .000     23  1.500                                                     
     1   .700     23  1.500                                                     
     2   .000      7  1.500                                                     
  local pseudopotential read in
  atomic valenz-charges read in
  non local Contribution for L=           0  read in
    real space projection operators read in
  non local Contribution for L=           0  read in
    real space projection operators read in
  non local Contribution for L=           1  read in
    real space projection operators read in
  non local Contribution for L=           1  read in
    real space projection operators read in
    PAW grid and wavefunctions read in
 
   number of l-projection  operators is LMAX  =           4
   number of lm-projection operators is LMMAX =           8
 
 POTCAR:   PAW_PBE O 08Apr2002                    
   VRHFIN =O: s2p4                                                              
   LEXCH  = PE                                                                  
   EATOM  =   432.3788 eV,   31.7789 Ry                                         
                                                                                
   TITEL  = PAW_PBE O 08Apr2002                                                 
   LULTRA =        F    use ultrasoft PP ?                                      
   IUNSCR =        0    unscreen: 0-lin 1-nonlin 2-no                           
   RPACOR =     .000    partial core radius                                     
   POMASS =   16.000; ZVAL   =    6.000    mass and valenz                      
   RCORE  =    1.520    outmost cutoff radius                                   
   RWIGS  =    1.550; RWIGS  =     .820    wigner-seitz radius (au A)           
   ENMAX  =  400.000; ENMIN  =  300.000 eV                                      
   ICORE  =        2    local potential                                         
   LCOR   =        T    correct aug charges                                     
   LPAW   =        T    paw PP                                                  
   EAUG   =  605.392                                                            
   DEXC   =     .000                                                            
   RMAX   =    2.264    core radius for proj-oper                               
   RAUG   =    1.300    factor for augmentation sphere                          
   RDEP   =    1.550    radius for radial grids                                 
   QCUT   =   -5.520; QGAM   =   11.041    optimization parameters              
                                                                                
   Description                                                                  
     l     E      TYP  RCUT    TYP  RCUT                                        
     0   .000     23  1.200                                                     
     0  -.700     23  1.200                                                     
     1   .000     23  1.520                                                     
     1   .600     23  1.520                                                     
     2   .000      7  1.500                                                     
  local pseudopotential read in
  atomic valenz-charges read in
  non local Contribution for L=           0  read in
    real space projection operators read in
  non local Contribution for L=           0  read in
    real space projection operators read in
  non local Contribution for L=           1  read in
    real space projection operators read in
  non local Contribution for L=           1  read in
    real space projection operators read in
    PAW grid and wavefunctions read in
 
   number of l-projection  operators is LMAX  =           4
   number of lm-projection operators is LMMAX =           8
 

 ----------------------------------------------------------------------------- 
|                                                                             |
|  ADVICE TO THIS USER RUNNING 'VASP/VAMP'   (HEAR YOUR MASTER'S VOICE ...):  |
|                                                                             |
|      You have a (more or less) 'large supercell' and for larger cells       |
|      it might be more efficient to use real space projection operators      |
|      So try LREAL= Auto  in the INCAR   file.                               |
|      Mind: If you want to do an extremely accurate calculations keep the    |
|      reciprocal projection scheme          (i.e. LREAL=.FALSE.)             |
|                                                                             |
 ----------------------------------------------------------------------------- 

 PAW_PBE C 08Apr2002                    :
 energy of atom  1       EATOM= -147.1560
 kinetic energy error for atom=    0.0065 (will be added to EATOM!!)
 PAW_PBE Co 06Sep2000                   :
 energy of atom  2       EATOM= -813.5563
 kinetic energy error for atom=    0.0024 (will be added to EATOM!!)
 PAW_PBE H 15Jun2001                    :
 energy of atom  3       EATOM=  -12.4884
 kinetic energy error for atom=    0.0007 (will be added to EATOM!!)
 PAW_PBE Li_sv 23Jan2001                :
 energy of atom  4       EATOM= -202.7858
 kinetic energy error for atom=    0.0011 (will be added to EATOM!!)
 PAW_PBE N 08Apr2002                    :
 energy of atom  5       EATOM= -264.5486
 kinetic energy error for atom=    0.0114 (will be added to EATOM!!)
 PAW_PBE O 08Apr2002                    :
 energy of atom  6       EATOM= -432.3788
 kinetic energy error for atom=    0.0190 (will be added to EATOM!!)
 
 EXHCAR: internal setup
 exchange correlation table for  LEXCH =        8
   RHO(1)=    0.500       N(1)  =     2000
   RHO(2)=  100.500       N(2)  =     4000
 
 POSCAR: C8Co1H24Li1N8O12   [HEX,HEX,hP54] (STD_P
  positions in direct lattice
  No initial velocities read in
 


--------------------------------------------------------------------------------------------------------


 ion  position               nearest neighbor table
   1  0.153  0.577  0.712-  22 1.09  19 1.10  10 1.10  41 1.50
   2  0.423  0.577  0.712-  23 1.09  11 1.10  21 1.10  41 1.50
   3  0.423  0.847  0.712-  24 1.09  20 1.10  12 1.10  41 1.50
   4  0.847  0.423  0.288-  25 1.09  13 1.10  16 1.10  42 1.50
   5  0.577  0.153  0.288-  26 1.09  14 1.10  18 1.10  42 1.50
   6  0.577  0.423  0.288-  27 1.09  17 1.10  15 1.10  42 1.50
   7  0.333  0.667  0.434-  29 1.10  30 1.10  28 1.10  41 1.50
   8  0.667  0.333  0.566-  33 1.10  32 1.10  31 1.10  42 1.50
   9  0.000  0.000  0.000-  37 2.00  39 2.00  36 2.00  40 2.00  35 2.00  38 2.00
  10  0.090  0.644  0.660-   1 1.10
  11  0.356  0.446  0.660-   2 1.10
  12  0.554  0.910  0.660-   3 1.10
  13  0.910  0.554  0.340-   4 1.10
  14  0.644  0.090  0.340-   5 1.10
  15  0.446  0.356  0.340-   6 1.10
  16  0.910  0.356  0.340-   4 1.10
  17  0.644  0.554  0.340-   6 1.10
  18  0.446  0.090  0.340-   5 1.10
  19  0.090  0.446  0.660-   1 1.10
  20  0.356  0.910  0.660-   3 1.10
  21  0.554  0.644  0.660-   2 1.10
  22  0.154  0.577  0.864-   1 1.09
  23  0.423  0.577  0.864-   2 1.09
  24  0.423  0.846  0.864-   3 1.09
  25  0.846  0.423  0.136-   4 1.09
  26  0.577  0.154  0.136-   5 1.09
  27  0.577  0.423  0.136-   6 1.09
  28  0.465  0.733  0.385-   7 1.10
  29  0.267  0.733  0.385-   7 1.10
  30  0.267  0.535  0.385-   7 1.10
  31  0.535  0.267  0.615-   8 1.10
  32  0.733  0.465  0.615-   8 1.10
  33  0.733  0.267  0.615-   8 1.10
  34  0.000  0.000  0.500-  43 2.08  46 2.08  45 2.08  47 2.08  44 2.08  48 2.08
  35  0.787  0.894  0.151-  49 1.24  43 1.26   9 2.00
  36  0.106  0.894  0.151-  50 1.24  44 1.26   9 2.00
  37  0.106  0.213  0.151-  51 1.24  45 1.26   9 2.00
  38  0.213  0.106  0.849-  52 1.24  46 1.26   9 2.00
  39  0.894  0.787  0.849-  53 1.24  47 1.26   9 2.00
  40  0.894  0.106  0.849-  54 1.24  48 1.26   9 2.00
  41  0.333  0.667  0.643-   3 1.50   2 1.50   1 1.50   7 1.50
  42  0.667  0.333  0.357-   5 1.50   6 1.50   4 1.50   8 1.50
  43  0.788  0.894  0.326-  35 1.26  34 2.08
  44  0.106  0.894  0.326-  36 1.26  34 2.08
  45  0.106  0.212  0.326-  37 1.26  34 2.08
  46  0.212  0.106  0.674-  38 1.26  34 2.08
  47  0.894  0.788  0.674-  39 1.26  34 2.08
  48  0.894  0.106  0.674-  40 1.26  34 2.08
  49  0.649  0.824  0.068-  35 1.24
  50  0.176  0.824  0.068-  36 1.24
  51  0.176  0.351  0.068-  37 1.24
  52  0.351  0.176  0.932-  38 1.24
  53  0.824  0.649  0.932-  39 1.24
  54  0.824  0.176  0.932-  40 1.24
 
  LATTYP: Found a hexagonal cell.
 ALAT       =     9.0788108220
 C/A-ratio  =     0.7935379307
  
  Lattice vectors:
  
 A1 = (   4.5394054110,  -7.8624808080,   0.0000000000)
 A2 = (   4.5394054110,   7.8624808080,   0.0000000000)
 A3 = (   0.0000000000,   0.0000000000,   7.2043807525)
 Subroutine PRICEL returns:
 Original cell was already a primitive cell.
 

Analysis of symmetry for initial positions (statically):

 Routine SETGRP: Setting up the symmetry group for a 
 hexagonal supercell.


 Subroutine GETGRP returns: Found  4 space group operations
 (whereof  4 operations were pure point group operations)
 out of a pool of 24 trial point group operations.


The static configuration has the point symmetry C_2h.

Analysis of symmetry for dynamics (positions and initial velocities):

 Subroutine DYNSYM returns: Found  4 space group operations
 (whereof  4 operations were pure point group operations)
 out of a pool of  4 trial space group operations
 (whereof  4 operations were pure point group operations)
 and found also     1 'primitive' translations


The dynamic configuration has the point symmetry C_2h.
 
 
 KPOINTS: KPOINTS File, automatically generated by

Automatic generation of k-mesh.
 
 Subroutine IBZKPT returns following result:
 ===========================================
 
 Found     68 irreducible k-points:
 
 Following reciprocal coordinates:
            Coordinates               Weight
  0.000000  0.000000  0.000000      1.000000
  0.166667  0.000000  0.000000      2.000000
  0.333333  0.000000  0.000000      2.000000
  0.500000  0.000000  0.000000      1.000000
  0.000000  0.166667  0.000000      4.000000
  0.166667  0.166667  0.000000      4.000000
  0.333333  0.166667  0.000000      4.000000
  0.000000  0.333333  0.000000      4.000000
  0.166667  0.333333  0.000000      4.000000
  0.333333  0.333333  0.000000      2.000000
 -0.166667  0.333333  0.000000      2.000000
  0.000000  0.500000  0.000000      2.000000
  0.166667  0.500000  0.000000      4.000000
  0.000000  0.000000  0.166667      2.000000
  0.166667  0.000000  0.166667      2.000000
  0.333333  0.000000  0.166667      2.000000
  0.500000  0.000000  0.166667      2.000000
 -0.333333  0.000000  0.166667      2.000000
 -0.166667  0.000000  0.166667      2.000000
  0.000000  0.166667  0.166667      4.000000
  0.166667  0.166667  0.166667      4.000000
  0.333333  0.166667  0.166667      4.000000
  0.500000  0.166667  0.166667      4.000000
 -0.333333  0.166667  0.166667      4.000000
 -0.166667  0.166667  0.166667      4.000000
  0.000000  0.333333  0.166667      4.000000
  0.166667  0.333333  0.166667      4.000000
  0.333333  0.333333  0.166667      4.000000
  0.500000  0.333333  0.166667      4.000000
 -0.333333  0.333333  0.166667      4.000000
 -0.166667  0.333333  0.166667      4.000000
  0.000000  0.500000  0.166667      4.000000
  0.166667  0.500000  0.166667      4.000000
  0.333333  0.500000  0.166667      4.000000
  0.000000  0.000000  0.333333      2.000000
  0.166667  0.000000  0.333333      2.000000
  0.333333  0.000000  0.333333      2.000000
  0.500000  0.000000  0.333333      2.000000
 -0.333333  0.000000  0.333333      2.000000
 -0.166667  0.000000  0.333333      2.000000
  0.000000  0.166667  0.333333      4.000000
  0.166667  0.166667  0.333333      4.000000
  0.333333  0.166667  0.333333      4.000000
  0.500000  0.166667  0.333333      4.000000
 -0.333333  0.166667  0.333333      4.000000
 -0.166667  0.166667  0.333333      4.000000
  0.000000  0.333333  0.333333      4.000000
  0.166667  0.333333  0.333333      4.000000
  0.333333  0.333333  0.333333      4.000000
  0.500000  0.333333  0.333333      4.000000
 -0.333333  0.333333  0.333333      4.000000
 -0.166667  0.333333  0.333333      4.000000
  0.000000  0.500000  0.333333      4.000000
  0.166667  0.500000  0.333333      4.000000
  0.333333  0.500000  0.333333      4.000000
  0.000000  0.000000  0.500000      1.000000
  0.166667  0.000000  0.500000      2.000000
  0.333333  0.000000  0.500000      2.000000
  0.500000  0.000000  0.500000      1.000000
  0.000000  0.166667  0.500000      4.000000
  0.166667  0.166667  0.500000      4.000000
  0.333333  0.166667  0.500000      4.000000
  0.000000  0.333333  0.500000      4.000000
  0.166667  0.333333  0.500000      4.000000
  0.333333  0.333333  0.500000      2.000000
 -0.166667  0.333333  0.500000      2.000000
  0.000000  0.500000  0.500000      2.000000
  0.166667  0.500000  0.500000      4.000000
 
 Following cartesian coordinates:
            Coordinates               Weight
  0.000000  0.000000  0.000000      1.000000
  0.018358 -0.010599  0.000000      2.000000
  0.036716 -0.021198  0.000000      2.000000
  0.055073 -0.031797  0.000000      1.000000
  0.018358  0.010599  0.000000      4.000000
  0.036716  0.000000  0.000000      4.000000
  0.055073 -0.010599  0.000000      4.000000
  0.036716  0.021198  0.000000      4.000000
  0.055073  0.010599  0.000000      4.000000
  0.073431  0.000000  0.000000      2.000000
  0.018358  0.031797  0.000000      2.000000
  0.055073  0.031797  0.000000      2.000000
  0.073431  0.021198  0.000000      4.000000
  0.000000  0.000000  0.023134      2.000000
  0.018358 -0.010599  0.023134      2.000000
  0.036716 -0.021198  0.023134      2.000000
  0.055073 -0.031797  0.023134      2.000000
 -0.036716  0.021198  0.023134      2.000000
 -0.018358  0.010599  0.023134      2.000000
  0.018358  0.010599  0.023134      4.000000
  0.036716  0.000000  0.023134      4.000000
  0.055073 -0.010599  0.023134      4.000000
  0.073431 -0.021198  0.023134      4.000000
 -0.018358  0.031797  0.023134      4.000000
  0.000000  0.021198  0.023134      4.000000
  0.036716  0.021198  0.023134      4.000000
  0.055073  0.010599  0.023134      4.000000
  0.073431  0.000000  0.023134      4.000000
  0.091789 -0.010599  0.023134      4.000000
  0.000000  0.042396  0.023134      4.000000
  0.018358  0.031797  0.023134      4.000000
  0.055073  0.031797  0.023134      4.000000
  0.073431  0.021198  0.023134      4.000000
  0.091789  0.010599  0.023134      4.000000
  0.000000  0.000000  0.046268      2.000000
  0.018358 -0.010599  0.046268      2.000000
  0.036716 -0.021198  0.046268      2.000000
  0.055073 -0.031797  0.046268      2.000000
 -0.036716  0.021198  0.046268      2.000000
 -0.018358  0.010599  0.046268      2.000000
  0.018358  0.010599  0.046268      4.000000
  0.036716  0.000000  0.046268      4.000000
  0.055073 -0.010599  0.046268      4.000000
  0.073431 -0.021198  0.046268      4.000000
 -0.018358  0.031797  0.046268      4.000000
  0.000000  0.021198  0.046268      4.000000
  0.036716  0.021198  0.046268      4.000000
  0.055073  0.010599  0.046268      4.000000
  0.073431  0.000000  0.046268      4.000000
  0.091789 -0.010599  0.046268      4.000000
  0.000000  0.042396  0.046268      4.000000
  0.018358  0.031797  0.046268      4.000000
  0.055073  0.031797  0.046268      4.000000
  0.073431  0.021198  0.046268      4.000000
  0.091789  0.010599  0.046268      4.000000
  0.000000  0.000000  0.069402      1.000000
  0.018358 -0.010599  0.069402      2.000000
  0.036716 -0.021198  0.069402      2.000000
  0.055073 -0.031797  0.069402      1.000000
  0.018358  0.010599  0.069402      4.000000
  0.036716  0.000000  0.069402      4.000000
  0.055073 -0.010599  0.069402      4.000000
  0.036716  0.021198  0.069402      4.000000
  0.055073  0.010599  0.069402      4.000000
  0.073431  0.000000  0.069402      2.000000
  0.018358  0.031797  0.069402      2.000000
  0.055073  0.031797  0.069402      2.000000
  0.073431  0.021198  0.069402      4.000000
 
 TETIRR: Found    646 inequivalent tetrahedra from     1296


--------------------------------------------------------------------------------------------------------




 Dimension of arrays:
   k-Points           NKPTS =     68   number of bands    NBANDS=    336
   number of dos      NEDOS =   5000   number of ions     NIONS =     54
   non local maximal  LDIM  =      6   non local SUM 2l+1 LMDIM =     18
   total plane-waves  NPLWV = 274400
   max r-space proj   IRMAX =      1   max aug-charges    IRDMAX=   7868
   dimension x,y,z NGX =    70 NGY =   70 NGZ =   56
   dimension x,y,z NGXF=   100 NGYF=  100 NGZF=   80
   support grid    NGXF=   100 NGYF=  100 NGZF=   80
   ions per type =               8   1  24   1   8  12
 NGX,Y,Z   is equivalent  to a cutoff of  12.82, 12.82, 12.92 a.u.
 NGXF,Y,Z  is equivalent  to a cutoff of  18.31, 18.31, 18.46 a.u.


 I would recommend the setting:
   dimension x,y,z NGX =    70 NGY =   70 NGZ =   56
 SYSTEM =  C8Co1H24Li1N8O12_ICSD_110738            
 POSCAR =  C8Co1H24Li1N8O12   [HEX,HEX,hP54] (STD_P

 Startparameter for this run:
   NWRITE =      2    write-flag & timer
   PREC   = high      medium, high low
   ISTART =      0    job   : 0-new  1-cont  2-samecut
   ICHARG =      2    charge: 1-file 2-atom 10-const
   ISPIN  =      1    spin polarized calculation?
   LNONCOLLINEAR =      F non collinear calculations
   LSORBIT =      F    spin-orbit coupling
   INIWAV =      1    electr: 0-lowe 1-rand  2-diag
   LASPH  =      F    aspherical Exc in radial PAW
   METAGGA=      F    non-selfconsistent MetaGGA calc.

 Electronic Relaxation 1
   ENCUT  =  560.0 eV  41.16 Ry    6.42 a.u.  17.52 17.52 13.90*2*pi/ulx,y,z
   ENINI  =  560.0     initial cutoff
   ENAUG  =  644.9 eV  augmentation charge cutoff
   NELM   =    120;   NELMIN=  2; NELMDL=  0     # of ELM steps 
   EDIFF  = 0.1E-03   stopping-criterion for ELM
   LREAL  =      F    real-space projection
   LCOMPAT=      F    compatible to vasp.4.4
   LREAL_COMPAT= F    compatible to vasp.4.5.1-3
   GGA_COMPAT  = T    GGA compatible to vasp.4.4-vasp.4.6
   LMAXPAW     = -100 max onsite density
   LMAXMIX     =    4 max onsite mixed and CHGCAR
   VOSKOWN=      0    Vosko Wilk Nusair interpolation
   ROPT   =    0.00000   0.00000   0.00000   0.00000
   ROPT   =    0.00000   0.00000
 Ionic relaxation
   EDIFFG = 0.1E-02   stopping-criterion for IOM
   NSW    =      0    number of steps for IOM
   NBLOCK =      1;   KBLOCK =      1    inner block; outer block 
   IBRION =     -1    ionic relax: 0-MD 1-quasi-New 2-CG
   NFREE  =      1    steps in history (QN), initial steepest desc. (CG)
   ISIF   =      2    stress and relaxation
   IWAVPR =     10    prediction:  0-non 1-charg 2-wave 3-comb
   ISYM   =      2    0-nonsym 1-usesym 2-fastsym
   LCORR  =      T    Harris-Foulkes like correction to forces

   POTIM  =   0.50    time-step for ionic-motion
   TEIN   =    0.0    initial temperature
   TEBEG  =    0.0;   TEEND  =   0.0 temperature during run
   SMASS  =  -3.00    Nose mass-parameter (am)
   estimated Nose-frequenzy (Omega)   =  0.10E-29 period in steps =****** mass=  -0.188E-26a.u.
   NPACO  =    256;   APACO  = 16.0  distance and # of slots for P.C.
   PSTRESS=    0.0 pullay stress

  Mass of Ions in am
   POMASS =  12.01 58.93  1.00  7.01
   POMASS =  14.00 16.00
  Ionic Valenz
   ZVAL   =   4.00  9.00  1.00  3.00
   ZVAL   =   5.00  6.00
  Atomic Wigner-Seitz radii
   RWIGS  =  -1.00 -1.00 -1.00 -1.00
   RWIGS  =  -1.00 -1.00
   NELECT =     180.0000    total number of electrons
   NUPDOWN=      -1.0000    fix difference up-down

 DOS related values:
   EMIN   = -30.00;   EMAX   = 45.00  energy-range for DOS
   ISMEAR =    -5;   SIGMA  =   0.05  broadening in eV -4-tet -1-fermi 0-gaus

 Electronic relaxation 2 (details)
   IALGO  =     38    algorithm
   LDIAG  =      T    sub-space diagonalisation
   IMIX   =      4    mixing-type and parameters
     AMIX     =   0.40;   BMIX     =  1.00
     AMIX_MAG =   1.60;   BMIX_MAG =  1.00
     AMIN     =   0.10
     WC   =   100.;   INIMIX=   1;  MIXPRE=   1

 Intra band minimization:
   WEIMIN = 0.0000     energy-eigenvalue tresh-hold
   EBREAK =  0.74E-07  absolut break condition
   DEPER  =   0.30     relativ break condition  

   TIME   =   0.10     timestep for ELM

  volume/ion in A,a.u.               =       9.52        64.27
  Fermi-wavevector in a.u.,eV,Ry     =   1.153729 18.110597  1.331091

 Second variation
   LSECVAR=     F    do a second variation
 
 Write flags
   LWAVE  =      F    write WAVECAR
   LCHARG =      T    write CHGCAR
   LVTOT  =      F    write LOCPOT, local potential
   LELF   =      F    write electronic localiz. function (ELF)
   LORBIT =     10    0 simple, 1 ext, 2 COOP (PROOUT)


 Dipole corrections
   IDIPOL =      0    1-x, 2-y, 3-z
   LDIPOL =      F    correct potential

 LDA+U is selected, type is set to LDAUTYPE =  2
   angular momentum for each species LDAUL =     0    2    0    0    0    0
   U (eV)           for each species LDAUU =   0.0  5.0  0.0  0.0  0.0  0.0
   J (eV)           for each species LDAUJ =   0.0  0.0  0.0  0.0  0.0  0.0


--------------------------------------------------------------------------------------------------------


 Static calculation
 charge density will be updated during run
 non-spin polarized calculation
 Variant of blocked Davidson
 Davidson routine will perform the subspace rotation
 performe sub-space diagonalisation
    after iterative eigenvector-optimisation
 modified Broyden-mixing scheme, WC =      100.0
 initial mixing is a Kerker type mixing with AMIX =  0.4000 and BMIX =      1.0000
 Hartree-type preconditioning will be used
 using additional bands          246
 reciprocal scheme for non local part
 use partial core corrections
 calculate Harris-corrections to forces 
   (improved forces if not selfconsistent)
 use gradient corrections 
 use of overlap-Matrix (Vanderbilt PP)
 Fermi weights with tetrahedron method with Bloechl corrections


--------------------------------------------------------------------------------------------------------


  energy-cutoff  :      560.00
  volume of cell :      514.26
      direct lattice vectors                 reciprocal lattice vectors
     4.539405411 -7.862480808  0.000000000     0.110146584 -0.063593160  0.000000000
     4.539405411  7.862480808  0.000000000     0.110146584  0.063593160  0.000000000
     0.000000000  0.000000000  7.204380753     0.000000000  0.000000000  0.138804435

  length of vectors
     9.078810822  9.078810822  7.204380753     0.127186320  0.127186320  0.138804435


 
 k-points in units of 2pi/SCALE and weight: KPOINTS File, automatically generated by
   0.00000000  0.00000000  0.00000000       0.005
   0.01835782 -0.01059889  0.00000000       0.009
   0.03671564 -0.02119778  0.00000000       0.009
   0.05507346 -0.03179668  0.00000000       0.005
   0.01835782  0.01059889  0.00000000       0.019
   0.03671564  0.00000000  0.00000000       0.019
   0.05507346 -0.01059889  0.00000000       0.019
   0.03671564  0.02119778  0.00000000       0.019
   0.05507346  0.01059889  0.00000000       0.019
   0.07343128  0.00000000  0.00000000       0.009
   0.01835782  0.03179668  0.00000000       0.009
   0.05507346  0.03179668  0.00000000       0.009
   0.07343128  0.02119778  0.00000000       0.019
   0.00000000  0.00000000  0.02313414       0.009
   0.01835782 -0.01059889  0.02313414       0.009
   0.03671564 -0.02119778  0.02313414       0.009
   0.05507346 -0.03179668  0.02313414       0.009
  -0.03671564  0.02119778  0.02313414       0.009
  -0.01835782  0.01059889  0.02313414       0.009
   0.01835782  0.01059889  0.02313414       0.019
   0.03671564  0.00000000  0.02313414       0.019
   0.05507346 -0.01059889  0.02313414       0.019
   0.07343128 -0.02119778  0.02313414       0.019
  -0.01835782  0.03179668  0.02313414       0.019
   0.00000000  0.02119778  0.02313414       0.019
   0.03671564  0.02119778  0.02313414       0.019
   0.05507346  0.01059889  0.02313414       0.019
   0.07343128  0.00000000  0.02313414       0.019
   0.09178910 -0.01059889  0.02313414       0.019
   0.00000000  0.04239557  0.02313414       0.019
   0.01835782  0.03179668  0.02313414       0.019
   0.05507346  0.03179668  0.02313414       0.019
   0.07343128  0.02119778  0.02313414       0.019
   0.09178910  0.01059889  0.02313414       0.019
   0.00000000  0.00000000  0.04626828       0.009
   0.01835782 -0.01059889  0.04626828       0.009
   0.03671564 -0.02119778  0.04626828       0.009
   0.05507346 -0.03179668  0.04626828       0.009
  -0.03671564  0.02119778  0.04626828       0.009
  -0.01835782  0.01059889  0.04626828       0.009
   0.01835782  0.01059889  0.04626828       0.019
   0.03671564  0.00000000  0.04626828       0.019
   0.05507346 -0.01059889  0.04626828       0.019
   0.07343128 -0.02119778  0.04626828       0.019
  -0.01835782  0.03179668  0.04626828       0.019
   0.00000000  0.02119778  0.04626828       0.019
   0.03671564  0.02119778  0.04626828       0.019
   0.05507346  0.01059889  0.04626828       0.019
   0.07343128  0.00000000  0.04626828       0.019
   0.09178910 -0.01059889  0.04626828       0.019
   0.00000000  0.04239557  0.04626828       0.019
   0.01835782  0.03179668  0.04626828       0.019
   0.05507346  0.03179668  0.04626828       0.019
   0.07343128  0.02119778  0.04626828       0.019
   0.09178910  0.01059889  0.04626828       0.019
   0.00000000  0.00000000  0.06940243       0.005
   0.01835782 -0.01059889  0.06940243       0.009
   0.03671564 -0.02119778  0.06940243       0.009
   0.05507346 -0.03179668  0.06940243       0.005
   0.01835782  0.01059889  0.06940243       0.019
   0.03671564  0.00000000  0.06940243       0.019
   0.05507346 -0.01059889  0.06940243       0.019
   0.03671564  0.02119778  0.06940243       0.019
   0.05507346  0.01059889  0.06940243       0.019
   0.07343128  0.00000000  0.06940243       0.009
   0.01835782  0.03179668  0.06940243       0.009
   0.05507346  0.03179668  0.06940243       0.009
   0.07343128  0.02119778  0.06940243       0.019
 
 k-points in reciprocal lattice and weights: KPOINTS File, automatically generated by
   0.00000000  0.00000000  0.00000000       0.005
   0.16666667  0.00000000  0.00000000       0.009
   0.33333333  0.00000000  0.00000000       0.009
   0.50000000  0.00000000  0.00000000       0.005
   0.00000000  0.16666667  0.00000000       0.019
   0.16666667  0.16666667  0.00000000       0.019
   0.33333333  0.16666667  0.00000000       0.019
   0.00000000  0.33333333  0.00000000       0.019
   0.16666667  0.33333333  0.00000000       0.019
   0.33333333  0.33333333  0.00000000       0.009
  -0.16666667  0.33333333  0.00000000       0.009
   0.00000000  0.50000000  0.00000000       0.009
   0.16666667  0.50000000  0.00000000       0.019
   0.00000000  0.00000000  0.16666667       0.009
   0.16666667  0.00000000  0.16666667       0.009
   0.33333333  0.00000000  0.16666667       0.009
   0.50000000  0.00000000  0.16666667       0.009
  -0.33333333  0.00000000  0.16666667       0.009
  -0.16666667  0.00000000  0.16666667       0.009
   0.00000000  0.16666667  0.16666667       0.019
   0.16666667  0.16666667  0.16666667       0.019
   0.33333333  0.16666667  0.16666667       0.019
   0.50000000  0.16666667  0.16666667       0.019
  -0.33333333  0.16666667  0.16666667       0.019
  -0.16666667  0.16666667  0.16666667       0.019
   0.00000000  0.33333333  0.16666667       0.019
   0.16666667  0.33333333  0.16666667       0.019
   0.33333333  0.33333333  0.16666667       0.019
   0.50000000  0.33333333  0.16666667       0.019
  -0.33333333  0.33333333  0.16666667       0.019
  -0.16666667  0.33333333  0.16666667       0.019
   0.00000000  0.50000000  0.16666667       0.019
   0.16666667  0.50000000  0.16666667       0.019
   0.33333333  0.50000000  0.16666667       0.019
   0.00000000  0.00000000  0.33333333       0.009
   0.16666667  0.00000000  0.33333333       0.009
   0.33333333  0.00000000  0.33333333       0.009
   0.50000000  0.00000000  0.33333333       0.009
  -0.33333333  0.00000000  0.33333333       0.009
  -0.16666667  0.00000000  0.33333333       0.009
   0.00000000  0.16666667  0.33333333       0.019
   0.16666667  0.16666667  0.33333333       0.019
   0.33333333  0.16666667  0.33333333       0.019
   0.50000000  0.16666667  0.33333333       0.019
  -0.33333333  0.16666667  0.33333333       0.019
  -0.16666667  0.16666667  0.33333333       0.019
   0.00000000  0.33333333  0.33333333       0.019
   0.16666667  0.33333333  0.33333333       0.019
   0.33333333  0.33333333  0.33333333       0.019
   0.50000000  0.33333333  0.33333333       0.019
  -0.33333333  0.33333333  0.33333333       0.019
  -0.16666667  0.33333333  0.33333333       0.019
   0.00000000  0.50000000  0.33333333       0.019
   0.16666667  0.50000000  0.33333333       0.019
   0.33333333  0.50000000  0.33333333       0.019
   0.00000000  0.00000000  0.50000000       0.005
   0.16666667  0.00000000  0.50000000       0.009
   0.33333333  0.00000000  0.50000000       0.009
   0.50000000  0.00000000  0.50000000       0.005
   0.00000000  0.16666667  0.50000000       0.019
   0.16666667  0.16666667  0.50000000       0.019
   0.33333333  0.16666667  0.50000000       0.019
   0.00000000  0.33333333  0.50000000       0.019
   0.16666667  0.33333333  0.50000000       0.019
   0.33333333  0.33333333  0.50000000       0.009
  -0.16666667  0.33333333  0.50000000       0.009
   0.00000000  0.50000000  0.50000000       0.009
   0.16666667  0.50000000  0.50000000       0.019
 
 position of ions in fractional coordinates (direct lattice) 
   0.15310366  0.57655183  0.71193120
   0.42344882  0.57655337  0.71193152
   0.42344882  0.84689545  0.71193152
   0.84689634  0.42344817  0.28806880
   0.57655118  0.15310455  0.28806848
   0.57655118  0.42344663  0.28806848
   0.33333457  0.66666728  0.43381122
   0.66666543  0.33333272  0.56618878
   0.00000000  0.00000000  0.00000000
   0.08975862  0.64425267  0.66030282
   0.35574664  0.44550736  0.66030287
   0.55449615  0.91024125  0.66030310
   0.91024138  0.55449405  0.33969718
   0.64425336  0.08976072  0.33969713
   0.44550385  0.35574511  0.33969690
   0.91024138  0.35574733  0.33969718
   0.64425336  0.55449264  0.33969713
   0.44550385  0.08975875  0.33969690
   0.08975862  0.44550595  0.66030282
   0.35574664  0.91023928  0.66030287
   0.55449615  0.64425489  0.66030310
   0.15410605  0.57705303  0.86371186
   0.42294821  0.57705448  0.86371208
   0.42294821  0.84589373  0.86371208
   0.84589395  0.42294697  0.13628814
   0.57705179  0.15410627  0.13628792
   0.57705179  0.42294552  0.13628792
   0.46533039  0.73266520  0.38451361
   0.26733696  0.73266364  0.38451288
   0.26733696  0.53467332  0.38451288
   0.53466961  0.26733480  0.61548639
   0.73266304  0.46532668  0.61548712
   0.73266304  0.26733636  0.61548712
   0.00000000  0.00000000  0.50000000
   0.78701317  0.89350659  0.15143540
   0.10649575  0.89350759  0.15143281
   0.10649575  0.21298816  0.15143281
   0.21298683  0.10649341  0.84856460
   0.89350425  0.78701184  0.84856719
   0.89350425  0.10649241  0.84856719
   0.33333404  0.66666702  0.64250522
   0.66666596  0.33333298  0.35749478
   0.78837525  0.89418762  0.32603889
   0.10581373  0.89418533  0.32603738
   0.10581373  0.21162840  0.32603738
   0.21162475  0.10581238  0.67396111
   0.89418627  0.78837160  0.67396262
   0.89418627  0.10581467  0.67396262
   0.64877278  0.82438639  0.06833984
   0.17561442  0.82439120  0.06833413
   0.17561442  0.35122322  0.06833413
   0.35122722  0.17561361  0.93166016
   0.82438558  0.64877678  0.93166587
   0.82438558  0.17560880  0.93166587
 
 position of ions in cartesian coordinates  (Angst):
   3.31220209  3.32935310  5.12902345
   4.53941536  1.20378161  5.12902574
   5.76660764  3.32934098  5.12902574
   5.76660873 -3.32935310  2.07535730
   3.31220319 -3.32934098  2.07535501
   4.53939546 -1.20378161  2.07535501
   4.53941383  2.62082208  3.12534121
   4.53939699 -2.62082208  4.07903955
   0.00000000  0.00000000  0.00000000
   3.33197481  4.35969883  4.75707294
   3.63721677  0.70574194  4.75707328
   6.64903686  2.79703907  4.75707492
   6.64902795 -2.79705657  2.44730781
   3.33198747 -4.35968771  2.44730747
   3.63719387 -0.70572644  2.44730583
   5.74683602 -4.35969883  2.44730781
   5.44159405 -0.70574194  2.44730747
   2.42977396 -2.79703907  2.44730583
   2.42978287  2.79705657  4.75707294
   5.74682335  4.35968771  4.75707328
   5.44161695  0.70572644  4.75707492
   3.31902747  3.32541247  6.22250910
   4.53941764  1.21165760  6.22251067
   5.75978797  3.32540101  6.22251067
   5.75978335 -3.32541247  0.98187165
   3.31902286 -3.32540101  0.98187009
   4.53939318 -1.21165760  0.98187009
   5.43818765  2.10191477  2.77018244
   4.53940813  3.65862205  2.77017721
   3.64064983  2.10192703  2.77017721
   3.64062318 -2.10191477  4.43419831
   5.43816099 -2.10192703  4.43420354
   4.53940270 -3.65862205  4.43420354
   0.00000000  0.00000000  3.60219038
   7.62856048  0.83730243  1.09099830
   4.53942057  6.18786552  1.09097964
   1.45026696  0.83729452  1.09097964
   1.45025034 -0.83730243  6.11338245
   7.62854386 -0.83729452  6.11340111
   4.53939025 -6.18786552  6.11340111
   4.53941020  2.62082417  4.62885224
   4.53940062 -2.62082417  2.57552852
   7.63783502  0.83194777  2.34890829
   4.53940113  6.19855659  2.34889746
   1.44099850  0.83196581  2.34889746
   1.44097580 -0.83194777  4.85547247
   7.63781232 -0.83196581  4.85548330
   4.53940969 -6.19855659  4.85548330
   6.68726670  1.38075864  0.49234621
   4.53943090  5.10099502  0.49230512
   2.39152959  1.38072082  0.49230512
   2.39154412 -1.38075864  6.71203455
   6.68728123 -1.38072082  6.71207563
   4.53937992 -5.10099502  6.71207563
 


--------------------------------------------------------------------------------------------------------


 k-point  1 :  0.00000.00000.0000  plane waves:  15573
 k-point  2 :  0.16670.00000.0000  plane waves:  15479
 k-point  3 :  0.33330.00000.0000  plane waves:  15450
 k-point  4 :  0.50000.00000.0000  plane waves:  15448
 k-point  5 :  0.00000.16670.0000  plane waves:  15479
 k-point  6 :  0.16670.16670.0000  plane waves:  15469
 k-point  7 :  0.33330.16670.0000  plane waves:  15460
 k-point  8 :  0.00000.33330.0000  plane waves:  15450
 k-point  9 :  0.16670.33330.0000  plane waves:  15460
 k-point 10 :  0.33330.33330.0000  plane waves:  15456
 k-point 11 :  -.16670.33330.0000  plane waves:  15469
 k-point 12 :  0.00000.50000.0000  plane waves:  15448
 k-point 13 :  0.16670.50000.0000  plane waves:  15460
 k-point 14 :  0.00000.00000.1667  plane waves:  15514
 k-point 15 :  0.16670.00000.1667  plane waves:  15490
 k-point 16 :  0.33330.00000.1667  plane waves:  15475
 k-point 17 :  0.50000.00000.1667  plane waves:  15436
 k-point 18 :  -.33330.00000.1667  plane waves:  15475
 k-point 19 :  -.16670.00000.1667  plane waves:  15490
 k-point 20 :  0.00000.16670.1667  plane waves:  15490
 k-point 21 :  0.16670.16670.1667  plane waves:  15478
 k-point 22 :  0.33330.16670.1667  plane waves:  15461
 k-point 23 :  0.50000.16670.1667  plane waves:  15461
 k-point 24 :  -.33330.16670.1667  plane waves:  15478
 k-point 25 :  -.16670.16670.1667  plane waves:  15490
 k-point 26 :  0.00000.33330.1667  plane waves:  15475
 k-point 27 :  0.16670.33330.1667  plane waves:  15461
 k-point 28 :  0.33330.33330.1667  plane waves:  15459
 k-point 29 :  0.50000.33330.1667  plane waves:  15461
 k-point 30 :  -.33330.33330.1667  plane waves:  15475
 k-point 31 :  -.16670.33330.1667  plane waves:  15478
 k-point 32 :  0.00000.50000.1667  plane waves:  15436
 k-point 33 :  0.16670.50000.1667  plane waves:  15461
 k-point 34 :  0.33330.50000.1667  plane waves:  15461
 k-point 35 :  0.00000.00000.3333  plane waves:  15490
 k-point 36 :  0.16670.00000.3333  plane waves:  15488
 k-point 37 :  0.33330.00000.3333  plane waves:  15460
 k-point 38 :  0.50000.00000.3333  plane waves:  15458
 k-point 39 :  -.33330.00000.3333  plane waves:  15460
 k-point 40 :  -.16670.00000.3333  plane waves:  15488
 k-point 41 :  0.00000.16670.3333  plane waves:  15488
 k-point 42 :  0.16670.16670.3333  plane waves:  15483
 k-point 43 :  0.33330.16670.3333  plane waves:  15482
 k-point 44 :  0.50000.16670.3333  plane waves:  15482
 k-point 45 :  -.33330.16670.3333  plane waves:  15483
 k-point 46 :  -.16670.16670.3333  plane waves:  15488
 k-point 47 :  0.00000.33330.3333  plane waves:  15460
 k-point 48 :  0.16670.33330.3333  plane waves:  15482
 k-point 49 :  0.33330.33330.3333  plane waves:  15462
 k-point 50 :  0.50000.33330.3333  plane waves:  15482
 k-point 51 :  -.33330.33330.3333  plane waves:  15460
 k-point 52 :  -.16670.33330.3333  plane waves:  15483
 k-point 53 :  0.00000.50000.3333  plane waves:  15458
 k-point 54 :  0.16670.50000.3333  plane waves:  15482
 k-point 55 :  0.33330.50000.3333  plane waves:  15482
 k-point 56 :  0.00000.00000.5000  plane waves:  15448
 k-point 57 :  0.16670.00000.5000  plane waves:  15474
 k-point 58 :  0.33330.00000.5000  plane waves:  15506
 k-point 59 :  0.50000.00000.5000  plane waves:  15484
 k-point 60 :  0.00000.16670.5000  plane waves:  15474
 k-point 61 :  0.16670.16670.5000  plane waves:  15500
 k-point 62 :  0.33330.16670.5000  plane waves:  15466
 k-point 63 :  0.00000.33330.5000  plane waves:  15506
 k-point 64 :  0.16670.33330.5000  plane waves:  15466
 k-point 65 :  0.33330.33330.5000  plane waves:  15492
 k-point 66 :  -.16670.33330.5000  plane waves:  15500
 k-point 67 :  0.00000.50000.5000  plane waves:  15484
 k-point 68 :  0.16670.50000.5000  plane waves:  15466

 maximum and minimum number of plane-waves per node :   1975  1898

 maximum number of plane-waves:  15573
 maximal index in each direction: 
   IXMAX= 17   IYMAX= 17   IZMAX= 13
   IXMIN=-18   IYMIN=-18   IZMIN=-14

 WARNING: wrap around error must be expected set NGX to  72
 WARNING: wrap around error must be expected set NGY to  72
 NGZ is ok and might be reduce to  56

 parallel 3dFFT wavefunction:
    minimum data exchange during FFTs selected (reduces bandwidth)
 parallel 3dFFT charge:
    minimum data exchange during FFTs selected (reduces bandwidth)

 For storing wavefunctions 5657.02 MBYTES are necessary
 For predicting wavefunctions  179.43 MBYTES are necessary
Broyden mixing: mesh for mixing (old mesh)
   NGX = 35   NGY = 35   NGZ = 27
  (NGX  =100   NGY  =100   NGZ  = 80)
 gives a total of  33075 points
 initial charge density was supplied:
 charge density of overlapping atoms calculated
 number of electron  180.0000000 magnetization 
 keeping initial charge density in first step


--------------------------------------------------------------------------------------------------------


 Maximum index for augmentation-charges          800 (set IRDMAX)


--------------------------------------------------------------------------------------------------------


 First call to EWALD:  gamma=   0.221
 Maximum number of real-space cells 3x 3x 3
 Maximum number of reciprocal cells 3x 3x 3

    FEWALD:  VPU time    0.02: CPU time    0.02


----------------------------------------- Iteration    1(   1)  ---------------------------------------


    POTLOK:  VPU time    0.07: CPU time    0.07
    SETDIJ:  VPU time    0.01: CPU time    0.01
    EDDAV :  VPU time  286.56: CPU time  286.92
 BZINTS: Fermi energy:  8.800228;180.000000 electrons
         Band energy:-555.437857;  BLOECHL correction: -0.033470
    DOS   :  VPU time    0.00: CPU time   -0.00
    ------------------------------------------
      LOOP:  VPU time  287.45: CPU time  287.96

 eigenvalue-minimisations  : 45792
 total energy-change (2. order) : 0.1077892E+04  (-0.7048244E+04)
 number of electron  180.0000000 magnetization 
 augmentation part   180.0000000 magnetization 

 Free energy of the ion-electron system (eV)
  ---------------------------------------------------
  alpha Z        PSCENC =       279.54052567
  Ewald energy   TEWEN  =     -3867.22663429
  -1/2 Hartree   DENC   =     -5160.41926581
  -V(xc)+E(xc)   XCENC  =       689.28690854
  PAW double counting   =      4861.01878561    -4966.72582717
  entropy T*S    EENTRO =         0.00000000
  eigenvalues    EBANDS =      -555.43785715
  atomic energy  EATOM  =      9797.85491216
  ---------------------------------------------------
  free energy    TOTEN  =      1077.89154755 eV

  energy without entropy =     1077.89154755  energy(sigma->0) =     1077.89154755


--------------------------------------------------------------------------------------------------------




----------------------------------------- Iteration    1(   2)  ---------------------------------------


    EDDAV :  VPU time  331.72: CPU time  332.14
 BZINTS: Fermi energy:  1.266312;180.000000 electrons
         Band energy:***********;  BLOECHL correction:  0.000000
    DOS   :  VPU time   -0.00: CPU time   -0.00
    ------------------------------------------
      LOOP:  VPU time  332.24: CPU time  332.88

 eigenvalue-minimisations  : 51800
 total energy-change (2. order) :-0.1311097E+04  (-0.1207893E+04)
 number of electron  180.0000000 magnetization 
 augmentation part   180.0000000 magnetization 

 Free energy of the ion-electron system (eV)
  ---------------------------------------------------
  alpha Z        PSCENC =       279.54052567
  Ewald energy   TEWEN  =     -3867.22663429
  -1/2 Hartree   DENC   =     -5160.41926581
  -V(xc)+E(xc)   XCENC  =       689.28690854
  PAW double counting   =      4861.01878561    -4966.72582717
  entropy T*S    EENTRO =         0.00000000
  eigenvalues    EBANDS =     -1866.53457418
  atomic energy  EATOM  =      9797.85491216
  ---------------------------------------------------
  free energy    TOTEN  =      -233.20516949 eV

  energy without entropy =     -233.20516949  energy(sigma->0) =     -233.20516949


--------------------------------------------------------------------------------------------------------




----------------------------------------- Iteration    1(   3)  ---------------------------------------


    EDDAV :  VPU time  366.21: CPU time  366.68
 BZINTS: Fermi energy:  0.114773;180.000000 electrons
         Band energy:***********;  BLOECHL correction:  0.000000
    DOS   :  VPU time    0.00: CPU time   -0.00
    ------------------------------------------
      LOOP:  VPU time  366.62: CPU time  367.30

 eigenvalue-minimisations  : 54000
 total energy-change (2. order) :-0.9338422E+02  (-0.8931206E+02)
 number of electron  180.0000000 magnetization 
 augmentation part   180.0000000 magnetization 

 Free energy of the ion-electron system (eV)
  ---------------------------------------------------
  alpha Z        PSCENC =       279.54052567
  Ewald energy   TEWEN  =     -3867.22663429
  -1/2 Hartree   DENC   =     -5160.41926581
  -V(xc)+E(xc)   XCENC  =       689.28690854
  PAW double counting   =      4861.01878561    -4966.72582717
  entropy T*S    EENTRO =         0.00000000
  eigenvalues    EBANDS =     -1959.91879817
  atomic energy  EATOM  =      9797.85491216
  ---------------------------------------------------
  free energy    TOTEN  =      -326.58939348 eV

  energy without entropy =     -326.58939348  energy(sigma->0) =     -326.58939348


--------------------------------------------------------------------------------------------------------




----------------------------------------- Iteration    1(   4)  ---------------------------------------


    EDDAV :  VPU time  357.58: CPU time  358.01
 BZINTS: Fermi energy:  0.084767;180.000000 electrons
         Band energy:***********;  BLOECHL correction:  0.000000
    DOS   :  VPU time    0.00: CPU time   -0.00
    ------------------------------------------
      LOOP:  VPU time  358.01: CPU time  358.62

 eigenvalue-minimisations  : 51560
 total energy-change (2. order) :-0.1547475E+01  (-0.1543381E+01)
 number of electron  180.0000000 magnetization 
 augmentation part   180.0000000 magnetization 

 Free energy of the ion-electron system (eV)
  ---------------------------------------------------
  alpha Z        PSCENC =       279.54052567
  Ewald energy   TEWEN  =     -3867.22663429
  -1/2 Hartree   DENC   =     -5160.41926581
  -V(xc)+E(xc)   XCENC  =       689.28690854
  PAW double counting   =      4861.01878561    -4966.72582717
  entropy T*S    EENTRO =         0.00000000
  eigenvalues    EBANDS =     -1961.46627297
  atomic energy  EATOM  =      9797.85491216
  ---------------------------------------------------
  free energy    TOTEN  =      -328.13686828 eV

  energy without entropy =     -328.13686828  energy(sigma->0) =     -328.13686828


--------------------------------------------------------------------------------------------------------




----------------------------------------- Iteration    1(   5)  ---------------------------------------


    EDDAV :  VPU time  489.79: CPU time  490.52
 BZINTS: Fermi energy:  0.084767;180.000000 electrons
         Band energy:***********;  BLOECHL correction:  0.000000
    DOS   :  VPU time   -0.00: CPU time   -0.00
    CHARGE:  VPU time    4.47: CPU time    4.48
    MIXING:  VPU time    0.00: CPU time    0.00
    ------------------------------------------
      LOOP:  VPU time  494.74: CPU time  495.81

 eigenvalue-minimisations  : 53800
 total energy-change (2. order) :-0.1116211E-01  (-0.1116114E-01)
 number of electron  179.9999867 magnetization 
 augmentation part    16.2986531 magnetization 

 Broyden mixing:
  rms(total) = 0.35397E+01    rms(broyden)= 0.35383E+01
  rms(prec ) = 0.53530E+01
  weight for this iteration     100.00

 Free energy of the ion-electron system (eV)
  ---------------------------------------------------
  alpha Z        PSCENC =       279.54052567
  Ewald energy   TEWEN  =     -3867.22663429
  -1/2 Hartree   DENC   =     -5160.41926581
  -V(xc)+E(xc)   XCENC  =       689.28690854
  PAW double counting   =      4861.01878561    -4966.72582717
  entropy T*S    EENTRO =         0.00000000
  eigenvalues    EBANDS =     -1961.47743508
  atomic energy  EATOM  =      9797.85491216
  ---------------------------------------------------
  free energy    TOTEN  =      -328.14803038 eV

  energy without entropy =     -328.14803038  energy(sigma->0) =     -328.14803038


--------------------------------------------------------------------------------------------------------




----------------------------------------- Iteration    1(   6)  ---------------------------------------


    POTLOK:  VPU time    0.08: CPU time    0.08
    SETDIJ:  VPU time    0.01: CPU time    0.01
    EDDAV :  VPU time  586.28: CPU time  587.17
 BZINTS: Fermi energy: -1.250500;180.000000 electrons
         Band energy:***********;  BLOECHL correction:  0.000000
    DOS   :  VPU time    0.00: CPU time   -0.00
    CHARGE:  VPU time    4.45: CPU time    4.46
    MIXING:  VPU time    0.00: CPU time    0.00
    ------------------------------------------
      LOOP:  VPU time  591.29: CPU time  592.58

 eigenvalue-minimisations  : 63568
 total energy-change (2. order) :-0.7656212E+01  (-0.1023090E+02)
 number of electron  179.9999903 magnetization 
 augmentation part    18.9360163 magnetization 

 Broyden mixing:
  rms(total) = 0.34201E+01    rms(broyden)= 0.34198E+01
  rms(prec ) = 0.55974E+01
  weight for this iteration     100.00

 eigenvalues of (default mixing * dielectric matrix)
  average eigenvalue GAMMA=   0.5162
  0.5162

 Free energy of the ion-electron system (eV)
  ---------------------------------------------------
  alpha Z        PSCENC =       279.54052567
  Ewald energy   TEWEN  =     -3867.22663429
  -1/2 Hartree   DENC   =     -5299.19044501
  -V(xc)+E(xc)   XCENC  =       702.79137703
  PAW double counting   =      5483.59181079    -5579.18082850
  entropy T*S    EENTRO =         0.00000000
  eigenvalues    EBANDS =     -1853.98496049
  atomic energy  EATOM  =      9797.85491216
  ---------------------------------------------------
  free energy    TOTEN  =      -335.80424265 eV

  energy without entropy =     -335.80424265  energy(sigma->0) =     -335.80424265


--------------------------------------------------------------------------------------------------------




----------------------------------------- Iteration    1(   7)  ---------------------------------------


    POTLOK:  VPU time    0.25: CPU time    0.25
    SETDIJ:  VPU time    0.06: CPU time    0.06
    EDDAV :  VPU time  614.03: CPU time  614.99
 BZINTS: Fermi energy: -1.250500;180.000000 electrons
         Band energy:***********;  BLOECHL correction:  0.000000
    DOS   :  VPU time    0.00: CPU time   -0.00
    CHARGE:  VPU time    4.50: CPU time    4.50
    MIXING:  VPU time    0.00: CPU time    0.00
    ------------------------------------------
      LOOP:  VPU time  619.30: CPU time  620.44

 eigenvalue-minimisations  : 62760
 total energy-change (2. order) : 0.3095681E+02  (-0.2888579E+01)
 number of electron  179.9999897 magnetization 
 augmentation part    16.5161196 magnetization 

 Broyden mixing:
  rms(total) = 0.11606E+01    rms(broyden)= 0.11604E+01
  rms(prec ) = 0.15470E+01
  weight for this iteration     100.00

 eigenvalues of (default mixing * dielectric matrix)
  average eigenvalue GAMMA=   0.9053
  1.3859  0.4247

 Free energy of the ion-electron system (eV)
  ---------------------------------------------------
  alpha Z        PSCENC =       279.54052567
  Ewald energy   TEWEN  =     -3867.22663429
  -1/2 Hartree   DENC   =     -5359.32907462
  -V(xc)+E(xc)   XCENC  =       704.72284604
  PAW double counting   =      5680.03136950    -5792.41932515
  entropy T*S    EENTRO =         0.00000000
  eigenvalues    EBANDS =     -1748.02204979
  atomic energy  EATOM  =      9797.85491216
  ---------------------------------------------------
  free energy    TOTEN  =      -304.84743049 eV

  energy without entropy =     -304.84743049  energy(sigma->0) =     -304.84743049


--------------------------------------------------------------------------------------------------------




----------------------------------------- Iteration    1(   8)  ---------------------------------------


    POTLOK:  VPU time    0.08: CPU time    0.08
    SETDIJ:  VPU time    0.01: CPU time    0.01
    EDDAV :  VPU time  530.26: CPU time  531.14
 BZINTS: Fermi energy: -0.980446;180.000000 electrons
         Band energy:***********;  BLOECHL correction:  0.000000
    DOS   :  VPU time    0.00: CPU time   -0.00
    CHARGE:  VPU time    4.42: CPU time    4.42
    MIXING:  VPU time    0.00: CPU time    0.00
    ------------------------------------------
      LOOP:  VPU time  535.23: CPU time  536.46

 eigenvalue-minimisations  : 62240
 total energy-change (2. order) : 0.9743962E+00  (-0.4149268E+00)
 number of electron  179.9999899 magnetization 
 augmentation part    16.7319198 magnetization 

 Broyden mixing:
  rms(total) = 0.46891E+00    rms(broyden)= 0.46888E+00
  rms(prec ) = 0.61440E+00
  weight for this iteration     100.00

 eigenvalues of (default mixing * dielectric matrix)
  average eigenvalue GAMMA=   1.1871
  0.4279  1.0406  2.0926

 Free energy of the ion-electron system (eV)
  ---------------------------------------------------
  alpha Z        PSCENC =       279.54052567
  Ewald energy   TEWEN  =     -3867.22663429
  -1/2 Hartree   DENC   =     -5420.16187503
  -V(xc)+E(xc)   XCENC  =       709.74074731
  PAW double counting   =      6026.88409410    -6137.88869381
  entropy T*S    EENTRO =         0.00000000
  eigenvalues    EBANDS =     -1692.61611039
  atomic energy  EATOM  =      9797.85491216
  ---------------------------------------------------
  free energy    TOTEN  =      -303.87303428 eV

  energy without entropy =     -303.87303428  energy(sigma->0) =     -303.87303428


--------------------------------------------------------------------------------------------------------




----------------------------------------- Iteration    1(   9)  ---------------------------------------


    POTLOK:  VPU time    0.12: CPU time    0.12
    SETDIJ:  VPU time    0.02: CPU time    0.02
    EDDAV :  VPU time  494.02: CPU time  494.72
 BZINTS: Fermi energy: -0.811662;180.000000 electrons
         Band energy:***********;  BLOECHL correction:  0.000000
    DOS   :  VPU time    0.00: CPU time   -0.00
    CHARGE:  VPU time    4.40: CPU time    4.41
    MIXING:  VPU time    0.00: CPU time    0.00
    ------------------------------------------
      LOOP:  VPU time  499.00: CPU time  499.91

 eigenvalue-minimisations  : 53368
 total energy-change (2. order) : 0.1682586E-01  (-0.5441935E-01)
 number of electron  179.9999899 magnetization 
 augmentation part    16.4960109 magnetization 

 Broyden mixing:
  rms(total) = 0.23172E+00    rms(broyden)= 0.23170E+00
  rms(prec ) = 0.33991E+00
  weight for this iteration     100.00

 eigenvalues of (default mixing * dielectric matrix)
  average eigenvalue GAMMA=   1.1948
  2.2722  1.3088  0.4226  0.7754

 Free energy of the ion-electron system (eV)
  ---------------------------------------------------
  alpha Z        PSCENC =       279.54052567
  Ewald energy   TEWEN  =     -3867.22663429
  -1/2 Hartree   DENC   =     -5452.21744863
  -V(xc)+E(xc)   XCENC  =       712.49059132
  PAW double counting   =      6238.36800385    -6348.10387788
  entropy T*S    EENTRO =         0.00000000
  eigenvalues    EBANDS =     -1664.56228062
  atomic energy  EATOM  =      9797.85491216
  ---------------------------------------------------
  free energy    TOTEN  =      -303.85620842 eV

  energy without entropy =     -303.85620842  energy(sigma->0) =     -303.85620842


--------------------------------------------------------------------------------------------------------




----------------------------------------- Iteration    1(  10)  ---------------------------------------


    POTLOK:  VPU time    0.10: CPU time    0.10
    SETDIJ:  VPU time    0.01: CPU time    0.02
    EDDAV :  VPU time  496.97: CPU time  497.72
 BZINTS: Fermi energy: -0.785407;180.000000 electrons
         Band energy:***********;  BLOECHL correction:  0.000000
    DOS   :  VPU time    0.00: CPU time   -0.00
    CHARGE:  VPU time    4.72: CPU time    4.73
    MIXING:  VPU time    0.00: CPU time    0.00
    ------------------------------------------
      LOOP:  VPU time  502.28: CPU time  503.41

 eigenvalue-minimisations  : 52264
 total energy-change (2. order) : 0.4187338E-03  (-0.1138970E-01)
 number of electron  179.9999900 magnetization 
 augmentation part    16.7327934 magnetization 

 Broyden mixing:
  rms(total) = 0.11499E+00    rms(broyden)= 0.11497E+00
  rms(prec ) = 0.18412E+00
  weight for this iteration     100.00

 eigenvalues of (default mixing * dielectric matrix)
  average eigenvalue GAMMA=   1.2057
  2.3845  1.5944  0.9815  0.4198  0.6483

 Free energy of the ion-electron system (eV)
  ---------------------------------------------------
  alpha Z        PSCENC =       279.54052567
  Ewald energy   TEWEN  =     -3867.22663429
  -1/2 Hartree   DENC   =     -5455.31794485
  -V(xc)+E(xc)   XCENC  =       712.85689352
  PAW double counting   =      6266.96733450    -6375.09910624
  entropy T*S    EENTRO =         0.00000000
  eigenvalues    EBANDS =     -1663.43177014
  atomic energy  EATOM  =      9797.85491216
  ---------------------------------------------------
  free energy    TOTEN  =      -303.85578968 eV

  energy without entropy =     -303.85578968  energy(sigma->0) =     -303.85578968


--------------------------------------------------------------------------------------------------------




----------------------------------------- Iteration    1(  11)  ---------------------------------------


    POTLOK:  VPU time    0.15: CPU time    0.15
    SETDIJ:  VPU time    0.03: CPU time    0.03
    EDDAV :  VPU time  517.73: CPU time  518.45
 BZINTS: Fermi energy: -0.770404;180.000000 electrons
         Band energy:***********;  BLOECHL correction:  0.000000
    DOS   :  VPU time    0.00: CPU time   -0.00
    CHARGE:  VPU time    4.38: CPU time    4.38
    MIXING:  VPU time    0.00: CPU time    0.00
    ------------------------------------------
      LOOP:  VPU time  522.75: CPU time  523.68

 eigenvalue-minimisations  : 56096
 total energy-change (2. order) : 0.3224081E-02  (-0.2147865E-02)
 number of electron  179.9999900 magnetization 
 augmentation part    16.6329998 magnetization 

 Broyden mixing:
  rms(total) = 0.35814E-01    rms(broyden)= 0.35807E-01
  rms(prec ) = 0.54021E-01
  weight for this iteration     100.00

 eigenvalues of (default mixing * dielectric matrix)
  average eigenvalue GAMMA=   1.3006
  2.4148  2.0951  1.2974  0.9614  0.4193  0.6155

 Free energy of the ion-electron system (eV)
  ---------------------------------------------------
  alpha Z        PSCENC =       279.54052567
  Ewald energy   TEWEN  =     -3867.22663429
  -1/2 Hartree   DENC   =     -5458.87599785
  -V(xc)+E(xc)   XCENC  =       713.03485394
  PAW double counting   =      6276.11817784    -6384.23941463
  entropy T*S    EENTRO =         0.00000000
  eigenvalues    EBANDS =     -1660.05898844
  atomic energy  EATOM  =      9797.85491216
  ---------------------------------------------------
  free energy    TOTEN  =      -303.85256560 eV

  energy without entropy =     -303.85256560  energy(sigma->0) =     -303.85256560


--------------------------------------------------------------------------------------------------------




----------------------------------------- Iteration    1(  12)  ---------------------------------------


    POTLOK:  VPU time    0.17: CPU time    0.17
    SETDIJ:  VPU time    0.03: CPU time    0.03
    EDDAV :  VPU time  518.33: CPU time  519.10
 BZINTS: Fermi energy: -0.751650;180.000000 electrons
         Band energy:***********;  BLOECHL correction:  0.000000
    DOS   :  VPU time   -0.00: CPU time   -0.00
    CHARGE:  VPU time    4.44: CPU time    4.45
    MIXING:  VPU time    0.00: CPU time    0.00
    ------------------------------------------
      LOOP:  VPU time  523.41: CPU time  524.52

 eigenvalue-minimisations  : 51424
 total energy-change (2. order) :-0.4139960E-02  (-0.5165351E-03)
 number of electron  179.9999900 magnetization 
 augmentation part    16.6523211 magnetization 

 Broyden mixing:
  rms(total) = 0.11892E-01    rms(broyden)= 0.11888E-01
  rms(prec ) = 0.18548E-01
  weight for this iteration     100.00

 eigenvalues of (default mixing * dielectric matrix)
  average eigenvalue GAMMA=   1.3028
  2.7429  2.3009  1.3904  0.4194  0.9427  0.6355  0.6877

 Free energy of the ion-electron system (eV)
  ---------------------------------------------------
  alpha Z        PSCENC =       279.54052567
  Ewald energy   TEWEN  =     -3867.22663429
  -1/2 Hartree   DENC   =     -5460.90721411
  -V(xc)+E(xc)   XCENC  =       713.13170819
  PAW double counting   =      6274.13232425    -6382.10540733
  entropy T*S    EENTRO =         0.00000000
  eigenvalues    EBANDS =     -1658.27692010
  atomic energy  EATOM  =      9797.85491216
  ---------------------------------------------------
  free energy    TOTEN  =      -303.85670556 eV

  energy without entropy =     -303.85670556  energy(sigma->0) =     -303.85670556


--------------------------------------------------------------------------------------------------------




----------------------------------------- Iteration    1(  13)  ---------------------------------------


    POTLOK:  VPU time    0.09: CPU time    0.09
    SETDIJ:  VPU time    0.01: CPU time    0.01
    EDDAV :  VPU time  456.52: CPU time  457.16
 BZINTS: Fermi energy: -0.751650;180.000000 electrons
         Band energy:***********;  BLOECHL correction:  0.000000
    DOS   :  VPU time    0.00: CPU time   -0.00
    CHARGE:  VPU time    4.48: CPU time    4.48
    MIXING:  VPU time    0.00: CPU time    0.00
    ------------------------------------------
      LOOP:  VPU time  461.54: CPU time  462.47

 eigenvalue-minimisations  : 54200
 total energy-change (2. order) :-0.8689890E-03  (-0.1449731E-03)
 number of electron  179.9999900 magnetization 
 augmentation part    16.6448848 magnetization 

 Broyden mixing:
  rms(total) = 0.82837E-02    rms(broyden)= 0.82814E-02
  rms(prec ) = 0.13012E-01
  weight for this iteration     100.00

 eigenvalues of (default mixing * dielectric matrix)
  average eigenvalue GAMMA=   1.3156
  2.8472  2.2889  1.4655  1.3355  0.9471  0.4193  0.6341  0.5869

 Free energy of the ion-electron system (eV)
  ---------------------------------------------------
  alpha Z        PSCENC =       279.54052567
  Ewald energy   TEWEN  =     -3867.22663429
  -1/2 Hartree   DENC   =     -5461.75332830
  -V(xc)+E(xc)   XCENC  =       713.17232717
  PAW double counting   =      6273.30878006    -6381.28703227
  entropy T*S    EENTRO =         0.00000000
  eigenvalues    EBANDS =     -1657.46712475
  atomic energy  EATOM  =      9797.85491216
  ---------------------------------------------------
  free energy    TOTEN  =      -303.85757455 eV

  energy without entropy =     -303.85757455  energy(sigma->0) =     -303.85757455


--------------------------------------------------------------------------------------------------------




----------------------------------------- Iteration    1(  14)  ---------------------------------------


    POTLOK:  VPU time    0.08: CPU time    0.08
    SETDIJ:  VPU time    0.01: CPU time    0.01
    EDDAV :  VPU time  444.87: CPU time  445.56
 BZINTS: Fermi energy: -0.740398;180.000000 electrons
         Band energy:***********;  BLOECHL correction:  0.000000
    DOS   :  VPU time    0.00: CPU time   -0.00
    ------------------------------------------
      LOOP:  VPU time  445.43: CPU time  446.33

 eigenvalue-minimisations  : 48712
 total energy-change (2. order) :-0.8126440E-04  (-0.1911255E-04)
 number of electron  179.9999900 magnetization 
 augmentation part    16.6448848 magnetization 

 Free energy of the ion-electron system (eV)
  ---------------------------------------------------
  alpha Z        PSCENC =       279.54052567
  Ewald energy   TEWEN  =     -3867.22663429
  -1/2 Hartree   DENC   =     -5461.69492823
  -V(xc)+E(xc)   XCENC  =       713.17173442
  PAW double counting   =      6271.69785744    -6379.68614423
  entropy T*S    EENTRO =         0.00000000
  eigenvalues    EBANDS =     -1657.51497876
  atomic energy  EATOM  =      9797.85491216
  ---------------------------------------------------
  free energy    TOTEN  =      -303.85765582 eV

  energy without entropy =     -303.85765582  energy(sigma->0) =     -303.85765582


--------------------------------------------------------------------------------------------------------




 average (electrostatic) potential at core
  the test charge radii are     0.6991  1.0452  0.5201  0.8577  0.7089  0.7215
  (the norm of the test charge is              1.0000)
       1 -54.8938       2 -54.8938       3 -54.8938       4 -54.8938       5 -54.8938
       6 -54.8938       7 -54.7296       8 -54.7296       9 -46.2638      10 -37.7397
      11 -37.7397      12 -37.7396      13 -37.7397      14 -37.7397      15 -37.7396
      16 -37.7397      17 -37.7397      18 -37.7396      19 -37.7397      20 -37.7397
      21 -37.7396      22 -37.6053      23 -37.6053      24 -37.6053      25 -37.6053
      26 -37.6053      27 -37.6053      28 -37.5324      29 -37.5326      30 -37.5325
      31 -37.5324      32 -37.5325      33 -37.5326      34 -17.9454      35 -72.6208
      36 -72.6209      37 -72.6209      38 -72.6208      39 -72.6209      40 -72.6209
      41 -71.8755      42 -71.8755      43 -76.0771      44 -76.0770      45 -76.0770
      46 -76.0771      47 -76.0770      48 -76.0770      49 -76.0095      50 -76.0097
      51 -76.0097      52 -76.0095      53 -76.0097      54 -76.0097
 
 
 
 E-fermi :  -0.7404     XC(G=0):  -8.1773     alpha+bet : -6.4825
   add alpha+bet to get absolut eigen values

 k-point   1 :       0.0000    0.0000    0.0000
  band No.  band energies     occupation 
      1     -43.4712      2.00000
      2     -25.1675      2.00000
      3     -25.0199      2.00000
      4     -25.0197      2.00000
      5     -24.9485      2.00000
      6     -24.9215      2.00000
      7     -24.9214      2.00000
      8     -20.8058      2.00000
      9     -20.7069      2.00000
     10     -20.7002      2.00000
     11     -20.6405      2.00000
     12     -20.6404      2.00000
     13     -20.6344      2.00000
     14     -20.5577      2.00000
     15     -20.5576      2.00000
     16     -13.7218      2.00000
     17     -13.7218      2.00000
     18     -13.6257      2.00000
     19     -13.6256      2.00000
     20     -13.5908      2.00000
     21     -13.5454      2.00000
[...]
 15        0.641   0.046   0.000   0.687
 16        0.641   0.046   0.000   0.687
 17        0.641   0.046   0.000   0.687
 18        0.641   0.046   0.000   0.687
 19        0.641   0.046   0.000   0.687
 20        0.641   0.046   0.000   0.687
 21        0.641   0.046   0.000   0.687
 22        0.639   0.047   0.000   0.686
 23        0.639   0.047   0.000   0.686
 24        0.639   0.047   0.000   0.686
 25        0.639   0.047   0.000   0.686
 26        0.639   0.047   0.000   0.686
 27        0.639   0.047   0.000   0.686
 28        0.636   0.047   0.000   0.683
 29        0.636   0.047   0.000   0.683
 30        0.636   0.047   0.000   0.683
 31        0.636   0.047   0.000   0.683
 32        0.636   0.047   0.000   0.683
 33        0.636   0.047   0.000   0.683
 34        2.068   0.191   0.000   2.259
 35        1.257   2.508   0.000   3.765
 36        1.257   2.508   0.000   3.765
 37        1.257   2.508   0.000   3.765
 38        1.257   2.508   0.000   3.765
 39        1.257   2.508   0.000   3.765
 40        1.257   2.508   0.000   3.765
 41        1.197   2.644   0.000   3.841
 42        1.197   2.644   0.000   3.841
 43        1.589   3.478   0.000   5.067
 44        1.589   3.478   0.000   5.067
 45        1.589   3.478   0.000   5.067
 46        1.589   3.478   0.000   5.067
 47        1.589   3.478   0.000   5.067
 48        1.589   3.478   0.000   5.067
 49        1.594   3.470   0.000   5.065
 50        1.594   3.470   0.000   5.065
 51        1.594   3.470   0.000   5.065
 52        1.594   3.470   0.000   5.065
 53        1.594   3.470   0.000   5.065
 54        1.594   3.470   0.000   5.065
------------------------------------------------
tot       53.653  78.105   7.386 139.143
 


--------------------------------------------------------------------------------------------------------


    CHARGE:  VPU time    4.53: CPU time    4.53
    FORLOC:  VPU time    0.02: CPU time    0.02
    FORNL :  VPU time   81.35: CPU time   81.42
    STRESS:  VPU time  152.47: CPU time  152.65
    FORCOR:  VPU time    0.07: CPU time    0.07
    FORHAR:  VPU time    0.04: CPU time    0.04
    MIXING:  VPU time    0.00: CPU time    0.00


--------------------------------------------------------------------------------------------------------



  FREE ENERGIE OF THE ION-ELECTRON SYSTEM (eV)
  ---------------------------------------------------
  free  energy   TOTEN  =      -303.857656 eV

  energy  without entropy=     -303.857656  energy(sigma->0) =     -303.857656
 

  FORCE on cell =-STRESS in cart. coord.  units (eV/reduce length):
  Direction    X        Y        Z        XY       YZ       ZX
  --------------------------------------------------------------------------------------
  Alpha Z    279.54    279.54    279.54
  Ewald    -2243.99  -2244.04    620.78     -0.04      0.01     -0.02
  Hartree   1229.44   1229.40   3002.96     -0.03      0.00     -0.01
  E(xc)     -780.37   -780.37   -774.58     -0.00      0.00     -0.00
  Local    -1318.18  -1318.10  -5811.18      0.07     -0.01      0.02
  n-local   -522.13   -522.14   -544.27      0.00      0.01      0.01
  augment    127.30    127.30    122.87      0.00      0.00      0.00
  Kinetic   3228.71   3228.73   3103.36     -0.00     -0.02     -0.01
  -------------------------------------------------------------------------------------
  Total        0.31      0.32     -0.53      0.00      0.00     -0.00
  in kB        0.98      0.99     -1.66      0.01      0.00     -0.00
  external pressure =        0.10 kB  Pullay stress =        0.00 kB


 VOLUME and BASIS-vectors are now :
 -----------------------------------------------------------------------------
  energy-cutoff  :      560.00
  volume of cell :      514.26
      direct lattice vectors                 reciprocal lattice vectors
     4.539405411 -7.862480808  0.000000000     0.110146584 -0.063593160  0.000000000
     4.539405411  7.862480808  0.000000000     0.110146584  0.063593160  0.000000000
     0.000000000  0.000000000  7.204380753     0.000000000  0.000000000  0.138804435

  length of vectors
     9.078810822  9.078810822  7.204380753     0.127186320  0.127186320  0.138804435


 FORCES acting on ions
    electron-ion (+dipol)            ewald-force                    non-local-force                 convergence-correction
 -----------------------------------------------------------------------------------------------
   0.880E+02 -.508E+02 -.256E+02   -.930E+02 0.537E+02 0.281E+02   0.500E+01 -.289E+01 -.251E+01   0.316E-02 -.182E-02 -.299E-02
   0.317E-03 0.102E+03 -.256E+02   -.236E-03 -.107E+03 0.281E+02   0.593E-05 0.577E+01 -.251E+01   0.418E-05 0.364E-02 -.298E-02
   -.880E+02 -.508E+02 -.256E+02   0.930E+02 0.537E+02 0.281E+02   -.500E+01 -.289E+01 -.251E+01   -.315E-02 -.183E-02 -.298E-02
   -.880E+02 0.508E+02 0.256E+02   0.930E+02 -.537E+02 -.281E+02   -.500E+01 0.289E+01 0.251E+01   -.316E-02 0.182E-02 0.299E-02
   0.880E+02 0.508E+02 0.256E+02   -.930E+02 -.537E+02 -.281E+02   0.500E+01 0.289E+01 0.251E+01   0.315E-02 0.183E-02 0.298E-02
   -.317E-03 -.102E+03 0.256E+02   0.236E-03 0.107E+03 -.281E+02   -.593E-05 -.577E+01 0.251E+01   -.418E-05 -.364E-02 0.298E-02
   0.154E-03 -.896E-04 0.122E+03   0.139E-03 -.803E-04 -.128E+03   -.388E-04 0.224E-04 0.655E+01   0.135E-05 -.792E-06 0.371E-02
   -.154E-03 0.896E-04 -.122E+03   -.139E-03 0.803E-04 0.128E+03   0.388E-04 -.224E-04 -.655E+01   -.135E-05 0.792E-06 -.371E-02
   -.498E-13 -.167E-12 0.839E-14   0.189E-11 0.305E-11 -.129E-13   -.106E-21 0.000E+00 0.000E+00   -.249E-12 -.242E-12 0.529E-14
   0.129E+02 -.357E+02 0.169E+02   -.129E+02 0.412E+02 -.188E+02   0.108E-01 -.552E+01 0.186E+01   -.271E-03 -.232E-02 -.757E-03
   0.245E+02 0.290E+02 0.169E+02   -.293E+02 -.318E+02 -.188E+02   0.478E+01 0.277E+01 0.186E+01   0.214E-02 0.923E-03 -.756E-03
   -.374E+02 0.668E+01 0.169E+02   0.422E+02 -.944E+01 -.188E+02   -.479E+01 0.275E+01 0.186E+01   -.187E-02 0.139E-02 -.755E-03
   -.374E+02 -.668E+01 -.169E+02   0.422E+02 0.944E+01 0.188E+02   -.479E+01 -.275E+01 -.186E+01   -.187E-02 -.139E-02 0.757E-03
   0.129E+02 0.357E+02 -.169E+02   -.129E+02 -.412E+02 0.188E+02   0.107E-01 0.552E+01 -.186E+01   -.271E-03 0.232E-02 0.756E-03
   0.245E+02 -.290E+02 -.169E+02   -.293E+02 0.318E+02 0.188E+02   0.478E+01 -.277E+01 -.186E+01   0.214E-02 -.923E-03 0.755E-03
   -.129E+02 0.357E+02 -.169E+02   0.129E+02 -.412E+02 0.188E+02   -.108E-01 0.552E+01 -.186E+01   0.271E-03 0.232E-02 0.757E-03
   -.245E+02 -.290E+02 -.169E+02   0.293E+02 0.318E+02 0.188E+02   -.478E+01 -.277E+01 -.186E+01   -.214E-02 -.923E-03 0.756E-03
   0.374E+02 -.668E+01 -.169E+02   -.422E+02 0.944E+01 0.188E+02   0.479E+01 -.275E+01 -.186E+01   0.187E-02 -.139E-02 0.755E-03
   0.374E+02 0.668E+01 0.169E+02   -.422E+02 -.944E+01 -.188E+02   0.479E+01 0.275E+01 0.186E+01   0.187E-02 0.139E-02 -.757E-03
   -.129E+02 -.357E+02 0.169E+02   0.129E+02 0.412E+02 -.188E+02   -.107E-01 -.552E+01 0.186E+01   0.271E-03 -.232E-02 -.756E-03
   -.245E+02 0.290E+02 0.169E+02   0.293E+02 -.318E+02 -.188E+02   -.478E+01 0.277E+01 0.186E+01   -.214E-02 0.923E-03 -.755E-03
   0.734E+01 -.424E+01 -.498E+02   -.743E+01 0.429E+01 0.557E+02   0.108E+00 -.621E-01 -.592E+01   0.984E-03 -.568E-03 -.875E-03
   0.321E-03 0.847E+01 -.498E+02   -.316E-03 -.858E+01 0.557E+02   -.182E-04 0.124E+00 -.592E+01   0.175E-05 0.113E-02 -.874E-03
   -.733E+01 -.424E+01 -.498E+02   0.743E+01 0.429E+01 0.557E+02   -.108E+00 -.621E-01 -.592E+01   -.982E-03 -.569E-03 -.874E-03
   -.734E+01 0.424E+01 0.498E+02   0.743E+01 -.429E+01 -.557E+02   -.108E+00 0.621E-01 0.592E+01   -.984E-03 0.568E-03 0.875E-03
   0.733E+01 0.424E+01 0.498E+02   -.743E+01 -.429E+01 -.557E+02   0.108E+00 0.621E-01 0.592E+01   0.982E-03 0.569E-03 0.874E-03
   -.321E-03 -.847E+01 0.498E+02   0.316E-03 0.858E+01 -.557E+02   0.182E-04 -.124E+00 0.592E+01   -.175E-05 -.113E-02 0.874E-03
   -.271E+02 0.157E+02 0.253E+02   0.319E+02 -.184E+02 -.273E+02   -.473E+01 0.273E+01 0.209E+01   -.140E-02 0.810E-03 0.124E-02
   0.515E-03 -.313E+02 0.253E+02   -.492E-03 0.368E+02 -.273E+02   0.404E-04 -.546E+01 0.209E+01   0.501E-06 -.162E-02 0.124E-02
   0.271E+02 0.157E+02 0.253E+02   -.319E+02 -.184E+02 -.273E+02   0.473E+01 0.273E+01 0.209E+01   0.140E-02 0.809E-03 0.124E-02
   0.271E+02 -.157E+02 -.253E+02   -.319E+02 0.184E+02 0.273E+02   0.473E+01 -.273E+01 -.209E+01   0.140E-02 -.810E-03 -.124E-02
   -.271E+02 -.157E+02 -.253E+02   0.319E+02 0.184E+02 0.273E+02   -.473E+01 -.273E+01 -.209E+01   -.140E-02 -.809E-03 -.124E-02
   -.515E-03 0.313E+02 -.253E+02   0.492E-03 -.368E+02 0.273E+02   -.404E-04 0.546E+01 -.209E+01   -.501E-06 0.162E-02 -.124E-02
   -.103E-14 -.187E-13 -.268E-13   0.201E-12 0.310E-12 0.160E-13   -.265E-22 0.000E+00 0.000E+00   -.697E-13 -.107E-12 0.476E-14
   0.603E+02 -.348E+02 -.233E+02   -.397E+02 0.229E+02 0.987E+01   -.206E+02 0.119E+02 0.135E+02   -.181E-02 0.105E-02 -.518E-02
   -.228E-02 0.696E+02 -.233E+02   0.243E-02 -.458E+02 0.988E+01   -.236E-03 -.238E+02 0.135E+02   0.119E-04 -.205E-02 -.513E-02
   -.603E+02 -.348E+02 -.233E+02   0.396E+02 0.229E+02 0.988E+01   0.206E+02 0.119E+02 0.135E+02   0.178E-02 0.102E-02 -.513E-02
   -.603E+02 0.348E+02 0.233E+02   0.397E+02 -.229E+02 -.987E+01   0.206E+02 -.119E+02 -.135E+02   0.181E-02 -.105E-02 0.518E-02
   0.603E+02 0.348E+02 0.233E+02   -.396E+02 -.229E+02 -.988E+01   -.206E+02 -.119E+02 -.135E+02   -.178E-02 -.102E-02 0.513E-02
   0.228E-02 -.696E+02 0.233E+02   -.243E-02 0.458E+02 -.988E+01   0.236E-03 0.238E+02 -.135E+02   -.119E-04 0.205E-02 0.513E-02
   0.359E-02 -.208E-02 0.125E+02   -.390E-02 0.225E-02 -.128E+02   0.193E-03 -.111E-03 0.242E+00   0.288E-05 -.166E-05 -.920E-03
   -.359E-02 0.208E-02 -.125E+02   0.390E-02 -.225E-02 0.128E+02   -.193E-03 0.111E-03 -.242E+00   -.288E-05 0.166E-05 0.920E-03
   0.150E+03 -.864E+02 -.292E+03   -.150E+03 0.869E+02 0.340E+03   0.828E+00 -.478E+00 -.486E+02   -.138E-01 0.798E-02 -.168E-01
   0.470E-02 0.173E+03 -.292E+03   -.549E-02 -.174E+03 0.340E+03   0.820E-03 0.956E+00 -.486E+02   0.322E-05 -.160E-01 -.168E-01
   -.150E+03 -.864E+02 -.292E+03   0.150E+03 0.869E+02 0.340E+03   -.828E+00 -.479E+00 -.486E+02   0.138E-01 0.797E-02 -.168E-01
   -.150E+03 0.864E+02 0.292E+03   0.150E+03 -.869E+02 -.340E+03   -.828E+00 0.478E+00 0.486E+02   0.138E-01 -.798E-02 0.168E-01
   0.150E+03 0.864E+02 0.292E+03   -.150E+03 -.869E+02 -.340E+03   0.828E+00 0.479E+00 0.486E+02   -.138E-01 -.797E-02 0.168E-01
   -.470E-02 -.173E+03 0.292E+03   0.549E-02 0.174E+03 -.340E+03   -.820E-03 -.956E+00 0.486E+02   -.322E-05 0.160E-01 0.168E-01
   0.364E+03 -.210E+03 0.842E+02   -.403E+03 0.233E+03 -.111E+03   0.393E+02 -.227E+02 0.266E+02   -.327E-02 0.189E-02 0.424E-02
   -.837E-03 0.420E+03 0.842E+02   0.136E-02 -.466E+03 -.111E+03   -.561E-03 0.453E+02 0.266E+02   0.119E-04 -.372E-02 0.428E-02
   -.364E+03 -.210E+03 0.842E+02   0.403E+03 0.233E+03 -.111E+03   -.393E+02 -.227E+02 0.266E+02   0.323E-02 0.185E-02 0.428E-02
   -.364E+03 0.210E+03 -.842E+02   0.403E+03 -.233E+03 0.111E+03   -.393E+02 0.227E+02 -.266E+02   0.327E-02 -.189E-02 -.424E-02
   0.364E+03 0.210E+03 -.842E+02   -.403E+03 -.233E+03 0.111E+03   0.393E+02 0.227E+02 -.266E+02   -.323E-02 -.185E-02 -.428E-02
   0.837E-03 -.420E+03 -.842E+02   -.136E-02 0.466E+03 0.111E+03   0.561E-03 -.453E+02 -.266E+02   -.119E-04 0.372E-02 -.428E-02
 -----------------------------------------------------------------------------------------------
   0.701E-10 0.990E-10 0.302E-10   -.345E-12 0.171E-12 -.455E-12   -.133E-14 0.142E-13 0.107E-13   -.114E-11 -.101E-11 -.123E-12
 
 
 POSITION                                       TOTAL-FORCE (eV/Angst)
 -----------------------------------------------------------------------------------
      3.31220      3.32935      5.12902         0.010466     -0.006042     -0.008979
      4.53942      1.20378      5.12903         0.000090      0.011647     -0.009095
      5.76661      3.32934      5.12903        -0.010041     -0.005901     -0.009095
      5.76661     -3.32935      2.07536        -0.010466      0.006042      0.008979
      3.31220     -3.32934      2.07536         0.010041      0.005901      0.009095
      4.53940     -1.20378      2.07536        -0.000090     -0.011647      0.009095
      4.53941      2.62082      3.12534         0.000256     -0.000148     -0.008669
      4.53940     -2.62082      4.07904        -0.000256      0.000148      0.008669
      0.00000      0.00000      0.00000         0.000000      0.000000      0.000000
      3.33197      4.35970      4.75707         0.007000     -0.011646      0.003115
      3.63722      0.70574      4.75707         0.006685      0.011792      0.003162
      6.64904      2.79704      4.75707        -0.013856     -0.000028      0.003201
      6.64903     -2.79706      2.44731        -0.013586      0.000239     -0.003115
      3.33199     -4.35969      2.44731         0.006870      0.011685     -0.003162
      3.63719     -0.70573      2.44731         0.006903     -0.012014     -0.003201
      5.74684     -4.35970      2.44731        -0.007000      0.011646     -0.003115
      5.44159     -0.70574      2.44731        -0.006685     -0.011792     -0.003162
      2.42977     -2.79704      2.44731         0.013856      0.000028     -0.003201
      2.42978      2.79706      4.75707         0.013586     -0.000239      0.003115
      5.74682      4.35969      4.75707        -0.006870     -0.011685      0.003162
      5.44162      0.70573      4.75707        -0.006903      0.012014      0.003201
      3.31903      3.32541      6.22251         0.014775     -0.008530     -0.010687
      4.53942      1.21166      6.22251        -0.000011      0.017077     -0.010665
      5.75979      3.32540      6.22251        -0.014795     -0.008529     -0.010665
      5.75978     -3.32541      0.98187        -0.014775      0.008530      0.010687
      3.31902     -3.32540      0.98187         0.014795      0.008529      0.010665
      4.53939     -1.21166      0.98187         0.000011     -0.017077      0.010665
      5.43819      2.10191      2.77018        -0.003186      0.001839      0.008838
      4.53941      3.65862      2.77018         0.000064     -0.003284      0.008761
      3.64065      2.10193      2.77018         0.002876      0.001587      0.008761
      3.64062     -2.10191      4.43420         0.003186     -0.001839     -0.008838
      5.43816     -2.10193      4.43420        -0.002876     -0.001587     -0.008761
      4.53940     -3.65862      4.43420        -0.000064      0.003284     -0.008761
      0.00000      0.00000      3.60219         0.000000      0.000000      0.000000
      7.62856      0.83730      1.09100         0.017135     -0.009893      0.013445
      4.53942      6.18787      1.09098        -0.000068      0.021088      0.014088
      1.45027      0.83729      1.09098        -0.018297     -0.010486      0.014088
      1.45025     -0.83730      6.11338        -0.017135      0.009893     -0.013445
      7.62854     -0.83729      6.11340         0.018297      0.010486     -0.014088
      4.53939     -6.18787      6.11340         0.000068     -0.021088     -0.014088
      4.53941      2.62082      4.62885        -0.000111      0.000064     -0.004717
      4.53940     -2.62082      2.57553         0.000111     -0.000064      0.004717
      7.63784      0.83195      2.34891         0.006220     -0.003591     -0.009821
      4.53940      6.19856      2.34890         0.000034      0.007149     -0.009987
      1.44100      0.83197      2.34890        -0.006174     -0.003604     -0.009987
      1.44098     -0.83195      4.85547        -0.006220      0.003591      0.009821
      7.63781     -0.83197      4.85548         0.006174      0.003604      0.009987
      4.53941     -6.19856      4.85548        -0.000034     -0.007149      0.009987
      6.68727      1.38076      0.49235        -0.028693      0.016566     -0.009633
      4.53943      5.10100      0.49231        -0.000026     -0.034410     -0.010141
      2.39153      1.38072      0.49231         0.029787      0.017227     -0.010141
      2.39154     -1.38076      6.71203         0.028693     -0.016566      0.009633
      6.68728     -1.38072      6.71208        -0.029787     -0.017227      0.010141
      4.53938     -5.10100      6.71208         0.000026      0.034410      0.010141
 -----------------------------------------------------------------------------------
    total drift:                                0.000000      0.000000      0.000000


--------------------------------------------------------------------------------------------------------



 mean value of Nose-termostat <S>:     1.000 mean value of <T> :     0.000
 mean temperature <T/S>/<1/S>  :     0.000

     LOOP+:  VPU time 6779.17: CPU time 6794.29
 


 total charge     
 
# of ion     s       p       d       tot
----------------------------------------
  1        0.848   1.767   0.000   2.615
  2        0.848   1.767   0.000   2.615
  3        0.848   1.767   0.000   2.615
  4        0.848   1.767   0.000   2.615
  5        0.848   1.767   0.000   2.615
  6        0.848   1.767   0.000   2.615
  7        0.849   1.769   0.000   2.618
  8        0.849   1.769   0.000   2.618
  9        0.418   0.625   7.386   8.429
 10        0.641   0.046   0.000   0.687
 11        0.641   0.046   0.000   0.687
 12        0.641   0.046   0.000   0.687
 13        0.641   0.046   0.000   0.687
 14        0.641   0.046   0.000   0.687
 15        0.641   0.046   0.000   0.687
 16        0.641   0.046   0.000   0.687
 17        0.641   0.046   0.000   0.687
 18        0.641   0.046   0.000   0.687
 19        0.641   0.046   0.000   0.687
 20        0.641   0.046   0.000   0.687
 21        0.641   0.046   0.000   0.687
 22        0.639   0.047   0.000   0.686
 23        0.639   0.047   0.000   0.686
 24        0.639   0.047   0.000   0.686
 25        0.639   0.047   0.000   0.686
 26        0.639   0.047   0.000   0.686
 27        0.639   0.047   0.000   0.686
 28        0.636   0.047   0.000   0.683
 29        0.636   0.047   0.000   0.683
 30        0.636   0.047   0.000   0.683
 31        0.636   0.047   0.000   0.683
 32        0.636   0.047   0.000   0.683
 33        0.636   0.047   0.000   0.683
 34        2.068   0.191   0.000   2.259
 35        1.257   2.508   0.000   3.765
 36        1.257   2.508   0.000   3.765
 37        1.257   2.508   0.000   3.765
 38        1.257   2.508   0.000   3.765
 39        1.257   2.508   0.000   3.765
 40        1.257   2.508   0.000   3.765
 41        1.197   2.644   0.000   3.841
 42        1.197   2.644   0.000   3.841
 43        1.589   3.478   0.000   5.067
 44        1.589   3.478   0.000   5.067
 45        1.589   3.478   0.000   5.067
 46        1.589   3.478   0.000   5.067
 47        1.589   3.478   0.000   5.067
 48        1.589   3.478   0.000   5.067
 49        1.594   3.470   0.000   5.065
 50        1.594   3.470   0.000   5.065
 51        1.594   3.470   0.000   5.065
 52        1.594   3.470   0.000   5.065
 53        1.594   3.470   0.000   5.065
 54        1.594   3.470   0.000   5.065
------------------------------------------------
tot       53.653  78.105   7.386 139.143
 
 BZINTS: Fermi energy: -0.740398;180.000000 electrons
         Band energy:***********;  BLOECHL correction:  0.000000
  
  
 General timing and accounting informations for this job:
 ========================================================
  
                  Total CPU time used (sec):     6906.061
                            User time (sec):     6856.318
                          System time (sec):       49.743
                         Elapsed time (sec):     6930.815
  
                   Maximum memory used (kb):      551424.
                   Average memory used (kb):           0.
  
                          Minor page faults:        25662
                          Major page faults:            0
                 Voluntary context switches:         1175
