
     Program PWSCF v.5.1.2 starts on 25Sep2015 at 18:46:44 

     This program is part of the open-source Quantum ESPRESSO suite
     for quantum simulation of materials; please cite
         "P. Giannozzi et al., J. Phys.:Condens. Matter 21 395502 (2009);
          URL http://www.quantum-espresso.org", 
     in publications or presentations arising from this work. More details at
     http://www.quantum-espresso.org/quote

     Parallel version (MPI), running on    16 processors
     R & G space division:  proc/nbgrp/npool/nimage =      16
     Waiting for input...
     Reading input from standard input

     Current dimensions of program PWSCF are:
     Max number of different atomic species (ntypx) = 10
     Max number of k-points (npk) =  40000
     Max angular momentum in pseudopotentials (lmaxx) =  3
               file Nb.pz-spn-rrkjus_psl.0.3.0.UPF: wavefunction(s)  4S renormalized

     Subspace diagonalization in iterative solution of the eigenvalue problem:
     a serial algorithm will be used

 
     Parallelization info
     --------------------
     sticks:   dense  smooth     PW     G-vecs:    dense   smooth      PW
     Min          45      31      9                 3499     1981     327
     Max          46      32     10                 3510     2000     338
     Sum         721     499    151                56025    31831    5327
 


     bravais-lattice index     =            4
     lattice parameter (alat)  =       5.4540  a.u.
     unit-cell volume          =     506.9237 (a.u.)^3
     number of atoms/cell      =            8
     number of atomic types    =            3
     number of electrons       =        56.00
     number of Kohn-Sham states=           34
     kinetic-energy cutoff     =      60.0000  Ry
     charge density cutoff     =     350.0000  Ry
     convergence threshold     =      1.0E-08
     mixing beta               =       0.7000
     number of iterations used =            8  plain     mixing
     Exchange-correlation      = LDA ( 1  1  0  0 0 0)

     celldm(1)=   5.454000  celldm(2)=   0.000000  celldm(3)=   3.608000
     celldm(4)=   0.000000  celldm(5)=   0.000000  celldm(6)=   0.000000

     crystal axes: (cart. coord. in units of alat)
               a(1) = (   1.000000   0.000000   0.000000 )  
               a(2) = (  -0.500000   0.866025   0.000000 )  
               a(3) = (   0.000000   0.000000   3.608000 )  

     reciprocal axes: (cart. coord. in units 2 pi/alat)
               b(1) = (  1.000000  0.577350  0.000000 )  
               b(2) = (  0.000000  1.154701  0.000000 )  
               b(3) = (  0.000000  0.000000  0.277162 )  


     PseudoPot. # 1 for Li read from file:
     /home/victor/CM135/PsP/QE/pz.0.3.1/PSEUDOPOTENTIALS/Li.pz-s-rrkjus_psl.0.2.1.UPF
     MD5 check sum: 3ba9f33595e729dd0656c2357f75fe8a
     Pseudo is Ultrasoft, Zval =  3.0
     Generated using "atomic" code by A. Dal Corso  v.5.0.99 svn rev. 10869
     Using radial grid of 1017 points,  4 beta functions with: 
                l(1) =   0
                l(2) =   0
                l(3) =   1
                l(4) =   1
     Q(r) pseudized with 0 coefficients 


     PseudoPot. # 2 for Nb read from file:
     /home/victor/CM135/PsP/QE/pz.0.3.1/PSEUDOPOTENTIALS/Nb.pz-spn-rrkjus_psl.0.3.0.UPF
     MD5 check sum: b1cea281d3b3efdf0ab23b4a76cdfe69
     Pseudo is Ultrasoft + core correction, Zval = 13.0
     Generated using "atomic" code by A. Dal Corso  v.5.0.99 svn rev. 10869
     Using radial grid of 1227 points,  6 beta functions with: 
                l(1) =   0
                l(2) =   0
                l(3) =   1
                l(4) =   1
                l(5) =   2
                l(6) =   2
     Q(r) pseudized with 0 coefficients 


     PseudoPot. # 3 for  O read from file:
     /home/victor/CM135/PsP/QE/pz.0.3.1/PSEUDOPOTENTIALS/O.pz-n-rrkjus_psl.0.1.UPF
     MD5 check sum: bc90013de5d4ea31c1c0ea310a8edfcd
     Pseudo is Ultrasoft + core correction, Zval =  6.0
     Generated using "atomic" code by A. Dal Corso  v.5.0.99 svn rev. 10869
     Using radial grid of 1095 points,  4 beta functions with: 
                l(1) =   0
                l(2) =   0
                l(3) =   1
                l(4) =   1
     Q(r) pseudized with 0 coefficients 


     atomic species   valence    mass     pseudopotential
        Li             3.00     6.94100     Li( 1.00)
        Nb            13.00    92.90638     Nb( 1.00)
        O              6.00    15.99940      O( 1.00)

     24 Sym. Ops., with inversion, found (12 have fractional translation)


                                    s                        frac. trans.

      isym =  1     identity                                     

 cryst.   s( 1) = (     1          0          0      )
                  (     0          1          0      )
                  (     0          0          1      )

 cart.    s( 1) = (  1.0000000  0.0000000  0.0000000 )
                  (  0.0000000  1.0000000  0.0000000 )
                  (  0.0000000  0.0000000  1.0000000 )


      isym =  2     180 deg rotation - cart. axis [0,0,1]        

 cryst.   s( 2) = (    -1          0          0      )    f =(  0.0000000 )
                  (     0         -1          0      )       (  0.0000000 )
                  (     0          0          1      )       (  0.5000000 )

 cart.    s( 2) = ( -1.0000000  0.0000000  0.0000000 )    f =(  0.0000000 )
                  (  0.0000000 -1.0000000  0.0000000 )       (  0.0000000 )
                  (  0.0000000  0.0000000  1.0000000 )       (  1.8040000 )


      isym =  3     180 deg rotation - cart. axis [0,1,0]        

 cryst.   s( 3) = (    -1          0          0      )    f =(  0.0000000 )
                  (     1          1          0      )       (  0.0000000 )
                  (     0          0         -1      )       ( -0.5000000 )

 cart.    s( 3) = ( -1.0000000  0.0000000  0.0000000 )    f =(  0.0000000 )
                  (  0.0000000  1.0000000  0.0000000 )       (  0.0000000 )
                  (  0.0000000  0.0000000 -1.0000000 )       ( -1.8040000 )


      isym =  4     180 deg rotation - cart. axis [1,0,0]        

 cryst.   s( 4) = (     1          0          0      )
                  (    -1         -1          0      )
                  (     0          0         -1      )

 cart.    s( 4) = (  1.0000000  0.0000000  0.0000000 )
                  (  0.0000000 -1.0000000  0.0000000 )
                  (  0.0000000  0.0000000 -1.0000000 )


      isym =  5      60 deg rotation - cryst. axis [0,0,1]       

 cryst.   s( 5) = (     1          1          0      )    f =(  0.0000000 )
                  (    -1          0          0      )       (  0.0000000 )
                  (     0          0          1      )       (  0.5000000 )

 cart.    s( 5) = (  0.5000000 -0.8660254  0.0000000 )    f =(  0.0000000 )
                  (  0.8660254  0.5000000  0.0000000 )       (  0.0000000 )
                  (  0.0000000  0.0000000  1.0000000 )       (  1.8040000 )


      isym =  6      60 deg rotation - cryst. axis [0,0,-1]      

 cryst.   s( 6) = (     0         -1          0      )    f =(  0.0000000 )
                  (     1          1          0      )       (  0.0000000 )
                  (     0          0          1      )       (  0.5000000 )

 cart.    s( 6) = (  0.5000000  0.8660254  0.0000000 )    f =(  0.0000000 )
                  ( -0.8660254  0.5000000  0.0000000 )       (  0.0000000 )
                  (  0.0000000  0.0000000  1.0000000 )       (  1.8040000 )


      isym =  7     120 deg rotation - cryst. axis [0,0,1]       

 cryst.   s( 7) = (     0          1          0      )
                  (    -1         -1          0      )
                  (     0          0          1      )

 cart.    s( 7) = ( -0.5000000 -0.8660254  0.0000000 )
                  (  0.8660254 -0.5000000  0.0000000 )
                  (  0.0000000  0.0000000  1.0000000 )


      isym =  8     120 deg rotation - cryst. axis [0,0,-1]      

 cryst.   s( 8) = (    -1         -1          0      )
                  (     1          0          0      )
                  (     0          0          1      )

 cart.    s( 8) = ( -0.5000000  0.8660254  0.0000000 )
                  ( -0.8660254 -0.5000000  0.0000000 )
                  (  0.0000000  0.0000000  1.0000000 )


      isym =  9     180 deg rotation - cryst. axis [1,-1,0]      

 cryst.   s( 9) = (     0         -1          0      )    f =(  0.0000000 )
                  (    -1          0          0      )       (  0.0000000 )
                  (     0          0         -1      )       ( -0.5000000 )

 cart.    s( 9) = (  0.5000000 -0.8660254  0.0000000 )    f =(  0.0000000 )
                  ( -0.8660254 -0.5000000  0.0000000 )       (  0.0000000 )
                  (  0.0000000  0.0000000 -1.0000000 )       ( -1.8040000 )


      isym = 10     180 deg rotation - cryst. axis [2,1,0]       

 cryst.   s(10) = (     1          1          0      )    f =(  0.0000000 )
                  (     0         -1          0      )       (  0.0000000 )
                  (     0          0         -1      )       ( -0.5000000 )

 cart.    s(10) = (  0.5000000  0.8660254  0.0000000 )    f =(  0.0000000 )
                  (  0.8660254 -0.5000000  0.0000000 )       (  0.0000000 )
                  (  0.0000000  0.0000000 -1.0000000 )       ( -1.8040000 )


      isym = 11     180 deg rotation - cryst. axis [0,1,0]       

 cryst.   s(11) = (    -1         -1          0      )
                  (     0          1          0      )
                  (     0          0         -1      )

 cart.    s(11) = ( -0.5000000 -0.8660254  0.0000000 )
                  ( -0.8660254  0.5000000  0.0000000 )
                  (  0.0000000  0.0000000 -1.0000000 )


      isym = 12     180 deg rotation - cryst. axis [1,1,0]       

 cryst.   s(12) = (     0          1          0      )
                  (     1          0          0      )
                  (     0          0         -1      )

 cart.    s(12) = ( -0.5000000  0.8660254  0.0000000 )
                  (  0.8660254  0.5000000  0.0000000 )
                  (  0.0000000  0.0000000 -1.0000000 )


      isym = 13     inversion                                    

 cryst.   s(13) = (    -1          0          0      )
                  (     0         -1          0      )
                  (     0          0         -1      )

 cart.    s(13) = ( -1.0000000  0.0000000  0.0000000 )
                  (  0.0000000 -1.0000000  0.0000000 )
                  (  0.0000000  0.0000000 -1.0000000 )


      isym = 14     inv. 180 deg rotation - cart. axis [0,0,1]   

 cryst.   s(14) = (     1          0          0      )    f =(  0.0000000 )
                  (     0          1          0      )       (  0.0000000 )
                  (     0          0         -1      )       ( -0.5000000 )

 cart.    s(14) = (  1.0000000  0.0000000  0.0000000 )    f =(  0.0000000 )
                  (  0.0000000  1.0000000  0.0000000 )       (  0.0000000 )
                  (  0.0000000  0.0000000 -1.0000000 )       ( -1.8040000 )


      isym = 15     inv. 180 deg rotation - cart. axis [0,1,0]   

 cryst.   s(15) = (     1          0          0      )    f =(  0.0000000 )
                  (    -1         -1          0      )       (  0.0000000 )
                  (     0          0          1      )       (  0.5000000 )

 cart.    s(15) = (  1.0000000  0.0000000  0.0000000 )    f =(  0.0000000 )
                  (  0.0000000 -1.0000000  0.0000000 )       (  0.0000000 )
                  (  0.0000000  0.0000000  1.0000000 )       (  1.8040000 )


      isym = 16     inv. 180 deg rotation - cart. axis [1,0,0]   

 cryst.   s(16) = (    -1          0          0      )
                  (     1          1          0      )
                  (     0          0          1      )

 cart.    s(16) = ( -1.0000000  0.0000000  0.0000000 )
                  (  0.0000000  1.0000000  0.0000000 )
                  (  0.0000000  0.0000000  1.0000000 )


      isym = 17     inv.  60 deg rotation - cryst. axis [0,0,1]  

 cryst.   s(17) = (    -1         -1          0      )    f =(  0.0000000 )
                  (     1          0          0      )       (  0.0000000 )
                  (     0          0         -1      )       ( -0.5000000 )

 cart.    s(17) = ( -0.5000000  0.8660254  0.0000000 )    f =(  0.0000000 )
                  ( -0.8660254 -0.5000000  0.0000000 )       (  0.0000000 )
                  (  0.0000000  0.0000000 -1.0000000 )       ( -1.8040000 )


      isym = 18     inv.  60 deg rotation - cryst. axis [0,0,-1] 

 cryst.   s(18) = (     0          1          0      )    f =(  0.0000000 )
                  (    -1         -1          0      )       (  0.0000000 )
                  (     0          0         -1      )       ( -0.5000000 )

 cart.    s(18) = ( -0.5000000 -0.8660254  0.0000000 )    f =(  0.0000000 )
                  (  0.8660254 -0.5000000  0.0000000 )       (  0.0000000 )
                  (  0.0000000  0.0000000 -1.0000000 )       ( -1.8040000 )


      isym = 19     inv. 120 deg rotation - cryst. axis [0,0,1]  

 cryst.   s(19) = (     0         -1          0      )
                  (     1          1          0      )
                  (     0          0         -1      )

 cart.    s(19) = (  0.5000000  0.8660254  0.0000000 )
                  ( -0.8660254  0.5000000  0.0000000 )
                  (  0.0000000  0.0000000 -1.0000000 )


      isym = 20     inv. 120 deg rotation - cryst. axis [0,0,-1] 

 cryst.   s(20) = (     1          1          0      )
                  (    -1          0          0      )
                  (     0          0         -1      )

 cart.    s(20) = (  0.5000000 -0.8660254  0.0000000 )
                  (  0.8660254  0.5000000  0.0000000 )
                  (  0.0000000  0.0000000 -1.0000000 )


      isym = 21     inv. 180 deg rotation - cryst. axis [1,-1,0] 

 cryst.   s(21) = (     0          1          0      )    f =(  0.0000000 )
                  (     1          0          0      )       (  0.0000000 )
                  (     0          0          1      )       (  0.5000000 )

 cart.    s(21) = ( -0.5000000  0.8660254  0.0000000 )    f =(  0.0000000 )
                  (  0.8660254  0.5000000  0.0000000 )       (  0.0000000 )
                  (  0.0000000  0.0000000  1.0000000 )       (  1.8040000 )


      isym = 22     inv. 180 deg rotation - cryst. axis [2,1,0]  

 cryst.   s(22) = (    -1         -1          0      )    f =(  0.0000000 )
                  (     0          1          0      )       (  0.0000000 )
                  (     0          0          1      )       (  0.5000000 )

 cart.    s(22) = ( -0.5000000 -0.8660254  0.0000000 )    f =(  0.0000000 )
                  ( -0.8660254  0.5000000  0.0000000 )       (  0.0000000 )
                  (  0.0000000  0.0000000  1.0000000 )       (  1.8040000 )


      isym = 23     inv. 180 deg rotation - cryst. axis [0,1,0]  

 cryst.   s(23) = (     1          1          0      )
                  (     0         -1          0      )
                  (     0          0          1      )

 cart.    s(23) = (  0.5000000  0.8660254  0.0000000 )
                  (  0.8660254 -0.5000000  0.0000000 )
                  (  0.0000000  0.0000000  1.0000000 )


      isym = 24     inv. 180 deg rotation - cryst. axis [1,1,0]  

 cryst.   s(24) = (     0         -1          0      )
                  (    -1          0          0      )
                  (     0          0          1      )

 cart.    s(24) = (  0.5000000 -0.8660254  0.0000000 )
                  ( -0.8660254 -0.5000000  0.0000000 )
                  (  0.0000000  0.0000000  1.0000000 )


     point group D_6h(6/mmm)
     there are 12 classes
     the character table:

       E     2C6   2C3   C2    3C2'  3C2'' i     2S3   2S6   s_h   3s_d  3s_v 
A_1g   1.00  1.00  1.00  1.00  1.00  1.00  1.00  1.00  1.00  1.00  1.00  1.00
A_2g   1.00  1.00  1.00  1.00 -1.00 -1.00  1.00  1.00  1.00  1.00 -1.00 -1.00
B_1g   1.00 -1.00  1.00 -1.00  1.00 -1.00  1.00 -1.00  1.00 -1.00  1.00 -1.00
B_2g   1.00 -1.00  1.00 -1.00 -1.00  1.00  1.00 -1.00  1.00 -1.00 -1.00  1.00
E_1g   2.00  1.00 -1.00 -2.00  0.00  0.00  2.00  1.00 -1.00 -2.00  0.00  0.00
E_2g   2.00 -1.00 -1.00  2.00  0.00  0.00  2.00 -1.00 -1.00  2.00  0.00  0.00
A_1u   1.00  1.00  1.00  1.00  1.00  1.00 -1.00 -1.00 -1.00 -1.00 -1.00 -1.00
A_2u   1.00  1.00  1.00  1.00 -1.00 -1.00 -1.00 -1.00 -1.00 -1.00  1.00  1.00
B_1u   1.00 -1.00  1.00 -1.00  1.00 -1.00 -1.00  1.00 -1.00  1.00 -1.00  1.00
B_2u   1.00 -1.00  1.00 -1.00 -1.00  1.00 -1.00  1.00 -1.00  1.00  1.00 -1.00
E_1u   2.00  1.00 -1.00 -2.00  0.00  0.00 -2.00 -1.00  1.00  2.00  0.00  0.00
E_2u   2.00 -1.00 -1.00  2.00  0.00  0.00 -2.00  1.00  1.00 -2.00  0.00  0.00

     the symmetry operations in each class and the name of the first element:

     E        1
                                                                 
     2C6      5    6
                                                                 
     2C3      7    8
                                                                 
     C2       2
                                                                 
     3C2'     4   12   11
                                                                 
     3C2''    3    9   10
                                                                 
     i       13
                                                                 
     2S3     17   18
                                                                 
     2S6     19   20
                                                                 
     s_h     14
                                                                 
     3s_d    16   24   23
                                                                 
     3s_v    15   21   22
                                                                 

   Cartesian axes

     site n.     atom                  positions (alat units)
         1           Li  tau(   1) = (   0.0000000   0.0000000   0.0000000  )
         2           Li  tau(   2) = (   0.0000000   0.0000000   1.8040000  )
         3           Nb  tau(   3) = (   0.5000000   0.2886751   0.9020000  )
         4           Nb  tau(   4) = (  -0.0000000   0.5773502   2.7060000  )
         5           O   tau(   5) = (  -0.0000000   0.5773503   0.4556904  )
         6           O   tau(   6) = (   0.5000000   0.2886751   3.1523097  )
         7           O   tau(   7) = (   0.5000000   0.2886751   2.2596903  )
         8           O   tau(   8) = (  -0.0000000   0.5773503   1.3483096  )

   Crystallographic axes

     site n.     atom                  positions (cryst. coord.)
         1           Li  tau(   1) = (  0.0000000  0.0000000  0.0000000  )
         2           Li  tau(   2) = (  0.0000000  0.0000000  0.5000000  )
         3           Nb  tau(   3) = (  0.6666667  0.3333333  0.2500000  )
         4           Nb  tau(   4) = (  0.3333333  0.6666666  0.7500000  )
         5           O   tau(   5) = (  0.3333333  0.6666667  0.1263000  )
         6           O   tau(   6) = (  0.6666666  0.3333333  0.8737000  )
         7           O   tau(   7) = (  0.6666666  0.3333333  0.6263000  )
         8           O   tau(   8) = (  0.3333333  0.6666667  0.3737000  )

     number of k points=  2052  Methfessel-Paxton smearing, width (Ry)=  0.0100
                       cart. coord. in units 2pi/alat
        k(    1) = (   0.0000000   0.0000000   0.0000000), wk =   0.0000509
        k(    2) = (   0.0000000   0.0000000   0.0081518), wk =   0.0001018
        k(    3) = (   0.0000000   0.0000000   0.0163036), wk =   0.0001018
        k(    4) = (   0.0000000   0.0000000   0.0244555), wk =   0.0001018
        k(    5) = (   0.0000000   0.0000000   0.0326073), wk =   0.0001018
        k(    6) = (   0.0000000   0.0000000   0.0407591), wk =   0.0001018
        k(    7) = (   0.0000000   0.0000000   0.0489109), wk =   0.0001018
        k(    8) = (   0.0000000   0.0000000   0.0570627), wk =   0.0001018
        k(    9) = (   0.0000000   0.0000000   0.0652146), wk =   0.0001018
        k(   10) = (   0.0000000   0.0000000   0.0733664), wk =   0.0001018
        k(   11) = (   0.0000000   0.0000000   0.0815182), wk =   0.0001018
        k(   12) = (   0.0000000   0.0000000   0.0896700), wk =   0.0001018
        k(   13) = (   0.0000000   0.0000000   0.0978218), wk =   0.0001018
        k(   14) = (   0.0000000   0.0000000   0.1059737), wk =   0.0001018
        k(   15) = (   0.0000000   0.0000000   0.1141255), wk =   0.0001018
        k(   16) = (   0.0000000   0.0000000   0.1222773), wk =   0.0001018
        k(   17) = (   0.0000000   0.0000000   0.1304291), wk =   0.0001018
        k(   18) = (   0.0000000   0.0000000  -0.1385809), wk =   0.0000509
        k(   19) = (   0.0000000   0.0339618   0.0000000), wk =   0.0003053
        k(   20) = (   0.0000000   0.0339618   0.0081518), wk =   0.0006106
        k(   21) = (   0.0000000   0.0339618   0.0163036), wk =   0.0006106
        k(   22) = (   0.0000000   0.0339618   0.0244555), wk =   0.0006106
        k(   23) = (   0.0000000   0.0339618   0.0326073), wk =   0.0006106
        k(   24) = (   0.0000000   0.0339618   0.0407591), wk =   0.0006106
        k(   25) = (   0.0000000   0.0339618   0.0489109), wk =   0.0006106
        k(   26) = (   0.0000000   0.0339618   0.0570627), wk =   0.0006106
        k(   27) = (   0.0000000   0.0339618   0.0652146), wk =   0.0006106
        k(   28) = (   0.0000000   0.0339618   0.0733664), wk =   0.0006106
        k(   29) = (   0.0000000   0.0339618   0.0815182), wk =   0.0006106
        k(   30) = (   0.0000000   0.0339618   0.0896700), wk =   0.0006106
        k(   31) = (   0.0000000   0.0339618   0.0978218), wk =   0.0006106
        k(   32) = (   0.0000000   0.0339618   0.1059737), wk =   0.0006106
        k(   33) = (   0.0000000   0.0339618   0.1141255), wk =   0.0006106
        k(   34) = (   0.0000000   0.0339618   0.1222773), wk =   0.0006106
        k(   35) = (   0.0000000   0.0339618   0.1304291), wk =   0.0006106
        k(   36) = (   0.0000000   0.0339618  -0.1385809), wk =   0.0003053
        k(   37) = (   0.0000000   0.0679236   0.0000000), wk =   0.0003053
        k(   38) = (   0.0000000   0.0679236   0.0081518), wk =   0.0006106
        k(   39) = (   0.0000000   0.0679236   0.0163036), wk =   0.0006106
        k(   40) = (   0.0000000   0.0679236   0.0244555), wk =   0.0006106
        k(   41) = (   0.0000000   0.0679236   0.0326073), wk =   0.0006106
        k(   42) = (   0.0000000   0.0679236   0.0407591), wk =   0.0006106
        k(   43) = (   0.0000000   0.0679236   0.0489109), wk =   0.0006106
        k(   44) = (   0.0000000   0.0679236   0.0570627), wk =   0.0006106
        k(   45) = (   0.0000000   0.0679236   0.0652146), wk =   0.0006106
        k(   46) = (   0.0000000   0.0679236   0.0733664), wk =   0.0006106
        k(   47) = (   0.0000000   0.0679236   0.0815182), wk =   0.0006106
        k(   48) = (   0.0000000   0.0679236   0.0896700), wk =   0.0006106
        k(   49) = (   0.0000000   0.0679236   0.0978218), wk =   0.0006106
        k(   50) = (   0.0000000   0.0679236   0.1059737), wk =   0.0006106
        k(   51) = (   0.0000000   0.0679236   0.1141255), wk =   0.0006106
        k(   52) = (   0.0000000   0.0679236   0.1222773), wk =   0.0006106
        k(   53) = (   0.0000000   0.0679236   0.1304291), wk =   0.0006106
        k(   54) = (   0.0000000   0.0679236  -0.1385809), wk =   0.0003053
        k(   55) = (   0.0000000   0.1018853   0.0000000), wk =   0.0003053
        k(   56) = (   0.0000000   0.1018853   0.0081518), wk =   0.0006106
        k(   57) = (   0.0000000   0.1018853   0.0163036), wk =   0.0006106
        k(   58) = (   0.0000000   0.1018853   0.0244555), wk =   0.0006106
        k(   59) = (   0.0000000   0.1018853   0.0326073), wk =   0.0006106
        k(   60) = (   0.0000000   0.1018853   0.0407591), wk =   0.0006106
        k(   61) = (   0.0000000   0.1018853   0.0489109), wk =   0.0006106
        k(   62) = (   0.0000000   0.1018853   0.0570627), wk =   0.0006106
        k(   63) = (   0.0000000   0.1018853   0.0652146), wk =   0.0006106
        k(   64) = (   0.0000000   0.1018853   0.0733664), wk =   0.0006106
        k(   65) = (   0.0000000   0.1018853   0.0815182), wk =   0.0006106
        k(   66) = (   0.0000000   0.1018853   0.0896700), wk =   0.0006106
        k(   67) = (   0.0000000   0.1018853   0.0978218), wk =   0.0006106
        k(   68) = (   0.0000000   0.1018853   0.1059737), wk =   0.0006106
        k(   69) = (   0.0000000   0.1018853   0.1141255), wk =   0.0006106
        k(   70) = (   0.0000000   0.1018853   0.1222773), wk =   0.0006106
        k(   71) = (   0.0000000   0.1018853   0.1304291), wk =   0.0006106
        k(   72) = (   0.0000000   0.1018853  -0.1385809), wk =   0.0003053
        k(   73) = (   0.0000000   0.1358471   0.0000000), wk =   0.0003053
        k(   74) = (   0.0000000   0.1358471   0.0081518), wk =   0.0006106
        k(   75) = (   0.0000000   0.1358471   0.0163036), wk =   0.0006106
        k(   76) = (   0.0000000   0.1358471   0.0244555), wk =   0.0006106
        k(   77) = (   0.0000000   0.1358471   0.0326073), wk =   0.0006106
        k(   78) = (   0.0000000   0.1358471   0.0407591), wk =   0.0006106
        k(   79) = (   0.0000000   0.1358471   0.0489109), wk =   0.0006106
        k(   80) = (   0.0000000   0.1358471   0.0570627), wk =   0.0006106
        k(   81) = (   0.0000000   0.1358471   0.0652146), wk =   0.0006106
        k(   82) = (   0.0000000   0.1358471   0.0733664), wk =   0.0006106
        k(   83) = (   0.0000000   0.1358471   0.0815182), wk =   0.0006106
        k(   84) = (   0.0000000   0.1358471   0.0896700), wk =   0.0006106
        k(   85) = (   0.0000000   0.1358471   0.0978218), wk =   0.0006106
        k(   86) = (   0.0000000   0.1358471   0.1059737), wk =   0.0006106
        k(   87) = (   0.0000000   0.1358471   0.1141255), wk =   0.0006106
        k(   88) = (   0.0000000   0.1358471   0.1222773), wk =   0.0006106
        k(   89) = (   0.0000000   0.1358471   0.1304291), wk =   0.0006106
        k(   90) = (   0.0000000   0.1358471  -0.1385809), wk =   0.0003053
        k(   91) = (   0.0000000   0.1698089   0.0000000), wk =   0.0003053
        k(   92) = (   0.0000000   0.1698089   0.0081518), wk =   0.0006106
        k(   93) = (   0.0000000   0.1698089   0.0163036), wk =   0.0006106
        k(   94) = (   0.0000000   0.1698089   0.0244555), wk =   0.0006106
        k(   95) = (   0.0000000   0.1698089   0.0326073), wk =   0.0006106
        k(   96) = (   0.0000000   0.1698089   0.0407591), wk =   0.0006106
        k(   97) = (   0.0000000   0.1698089   0.0489109), wk =   0.0006106
        k(   98) = (   0.0000000   0.1698089   0.0570627), wk =   0.0006106
        k(   99) = (   0.0000000   0.1698089   0.0652146), wk =   0.0006106
        k(  100) = (   0.0000000   0.1698089   0.0733664), wk =   0.0006106
        k(  101) = (   0.0000000   0.1698089   0.0815182), wk =   0.0006106
        k(  102) = (   0.0000000   0.1698089   0.0896700), wk =   0.0006106
        k(  103) = (   0.0000000   0.1698089   0.0978218), wk =   0.0006106
        k(  104) = (   0.0000000   0.1698089   0.1059737), wk =   0.0006106
        k(  105) = (   0.0000000   0.1698089   0.1141255), wk =   0.0006106
        k(  106) = (   0.0000000   0.1698089   0.1222773), wk =   0.0006106
        k(  107) = (   0.0000000   0.1698089   0.1304291), wk =   0.0006106
        k(  108) = (   0.0000000   0.1698089  -0.1385809), wk =   0.0003053
        k(  109) = (   0.0000000   0.2037707   0.0000000), wk =   0.0003053
        k(  110) = (   0.0000000   0.2037707   0.0081518), wk =   0.0006106
        k(  111) = (   0.0000000   0.2037707   0.0163036), wk =   0.0006106
        k(  112) = (   0.0000000   0.2037707   0.0244555), wk =   0.0006106
        k(  113) = (   0.0000000   0.2037707   0.0326073), wk =   0.0006106
        k(  114) = (   0.0000000   0.2037707   0.0407591), wk =   0.0006106
        k(  115) = (   0.0000000   0.2037707   0.0489109), wk =   0.0006106
        k(  116) = (   0.0000000   0.2037707   0.0570627), wk =   0.0006106
        k(  117) = (   0.0000000   0.2037707   0.0652146), wk =   0.0006106
        k(  118) = (   0.0000000   0.2037707   0.0733664), wk =   0.0006106
        k(  119) = (   0.0000000   0.2037707   0.0815182), wk =   0.0006106
        k(  120) = (   0.0000000   0.2037707   0.0896700), wk =   0.0006106
        k(  121) = (   0.0000000   0.2037707   0.0978218), wk =   0.0006106
        k(  122) = (   0.0000000   0.2037707   0.1059737), wk =   0.0006106
        k(  123) = (   0.0000000   0.2037707   0.1141255), wk =   0.0006106
        k(  124) = (   0.0000000   0.2037707   0.1222773), wk =   0.0006106
        k(  125) = (   0.0000000   0.2037707   0.1304291), wk =   0.0006106
        k(  126) = (   0.0000000   0.2037707  -0.1385809), wk =   0.0003053
        k(  127) = (   0.0000000   0.2377325   0.0000000), wk =   0.0003053
        k(  128) = (   0.0000000   0.2377325   0.0081518), wk =   0.0006106
        k(  129) = (   0.0000000   0.2377325   0.0163036), wk =   0.0006106
        k(  130) = (   0.0000000   0.2377325   0.0244555), wk =   0.0006106
        k(  131) = (   0.0000000   0.2377325   0.0326073), wk =   0.0006106
        k(  132) = (   0.0000000   0.2377325   0.0407591), wk =   0.0006106
        k(  133) = (   0.0000000   0.2377325   0.0489109), wk =   0.0006106
        k(  134) = (   0.0000000   0.2377325   0.0570627), wk =   0.0006106
        k(  135) = (   0.0000000   0.2377325   0.0652146), wk =   0.0006106
        k(  136) = (   0.0000000   0.2377325   0.0733664), wk =   0.0006106
        k(  137) = (   0.0000000   0.2377325   0.0815182), wk =   0.0006106
        k(  138) = (   0.0000000   0.2377325   0.0896700), wk =   0.0006106
        k(  139) = (   0.0000000   0.2377325   0.0978218), wk =   0.0006106
        k(  140) = (   0.0000000   0.2377325   0.1059737), wk =   0.0006106
        k(  141) = (   0.0000000   0.2377325   0.1141255), wk =   0.0006106
        k(  142) = (   0.0000000   0.2377325   0.1222773), wk =   0.0006106
        k(  143) = (   0.0000000   0.2377325   0.1304291), wk =   0.0006106
        k(  144) = (   0.0000000   0.2377325  -0.1385809), wk =   0.0003053
        k(  145) = (   0.0000000   0.2716942   0.0000000), wk =   0.0003053
        k(  146) = (   0.0000000   0.2716942   0.0081518), wk =   0.0006106
        k(  147) = (   0.0000000   0.2716942   0.0163036), wk =   0.0006106
        k(  148) = (   0.0000000   0.2716942   0.0244555), wk =   0.0006106
        k(  149) = (   0.0000000   0.2716942   0.0326073), wk =   0.0006106
        k(  150) = (   0.0000000   0.2716942   0.0407591), wk =   0.0006106
        k(  151) = (   0.0000000   0.2716942   0.0489109), wk =   0.0006106
        k(  152) = (   0.0000000   0.2716942   0.0570627), wk =   0.0006106
        k(  153) = (   0.0000000   0.2716942   0.0652146), wk =   0.0006106
        k(  154) = (   0.0000000   0.2716942   0.0733664), wk =   0.0006106
        k(  155) = (   0.0000000   0.2716942   0.0815182), wk =   0.0006106
        k(  156) = (   0.0000000   0.2716942   0.0896700), wk =   0.0006106
        k(  157) = (   0.0000000   0.2716942   0.0978218), wk =   0.0006106
        k(  158) = (   0.0000000   0.2716942   0.1059737), wk =   0.0006106
        k(  159) = (   0.0000000   0.2716942   0.1141255), wk =   0.0006106
        k(  160) = (   0.0000000   0.2716942   0.1222773), wk =   0.0006106
        k(  161) = (   0.0000000   0.2716942   0.1304291), wk =   0.0006106
        k(  162) = (   0.0000000   0.2716942  -0.1385809), wk =   0.0003053
        k(  163) = (   0.0000000   0.3056560   0.0000000), wk =   0.0003053
        k(  164) = (   0.0000000   0.3056560   0.0081518), wk =   0.0006106
        k(  165) = (   0.0000000   0.3056560   0.0163036), wk =   0.0006106
        k(  166) = (   0.0000000   0.3056560   0.0244555), wk =   0.0006106
        k(  167) = (   0.0000000   0.3056560   0.0326073), wk =   0.0006106
        k(  168) = (   0.0000000   0.3056560   0.0407591), wk =   0.0006106
        k(  169) = (   0.0000000   0.3056560   0.0489109), wk =   0.0006106
        k(  170) = (   0.0000000   0.3056560   0.0570627), wk =   0.0006106
        k(  171) = (   0.0000000   0.3056560   0.0652146), wk =   0.0006106
        k(  172) = (   0.0000000   0.3056560   0.0733664), wk =   0.0006106
        k(  173) = (   0.0000000   0.3056560   0.0815182), wk =   0.0006106
        k(  174) = (   0.0000000   0.3056560   0.0896700), wk =   0.0006106
        k(  175) = (   0.0000000   0.3056560   0.0978218), wk =   0.0006106
        k(  176) = (   0.0000000   0.3056560   0.1059737), wk =   0.0006106
        k(  177) = (   0.0000000   0.3056560   0.1141255), wk =   0.0006106
        k(  178) = (   0.0000000   0.3056560   0.1222773), wk =   0.0006106
        k(  179) = (   0.0000000   0.3056560   0.1304291), wk =   0.0006106
        k(  180) = (   0.0000000   0.3056560  -0.1385809), wk =   0.0003053
        k(  181) = (   0.0000000   0.3396178   0.0000000), wk =   0.0003053
        k(  182) = (   0.0000000   0.3396178   0.0081518), wk =   0.0006106
        k(  183) = (   0.0000000   0.3396178   0.0163036), wk =   0.0006106
        k(  184) = (   0.0000000   0.3396178   0.0244555), wk =   0.0006106
        k(  185) = (   0.0000000   0.3396178   0.0326073), wk =   0.0006106
        k(  186) = (   0.0000000   0.3396178   0.0407591), wk =   0.0006106
        k(  187) = (   0.0000000   0.3396178   0.0489109), wk =   0.0006106
        k(  188) = (   0.0000000   0.3396178   0.0570627), wk =   0.0006106
        k(  189) = (   0.0000000   0.3396178   0.0652146), wk =   0.0006106
        k(  190) = (   0.0000000   0.3396178   0.0733664), wk =   0.0006106
        k(  191) = (   0.0000000   0.3396178   0.0815182), wk =   0.0006106
        k(  192) = (   0.0000000   0.3396178   0.0896700), wk =   0.0006106
        k(  193) = (   0.0000000   0.3396178   0.0978218), wk =   0.0006106
        k(  194) = (   0.0000000   0.3396178   0.1059737), wk =   0.0006106
        k(  195) = (   0.0000000   0.3396178   0.1141255), wk =   0.0006106
        k(  196) = (   0.0000000   0.3396178   0.1222773), wk =   0.0006106
        k(  197) = (   0.0000000   0.3396178   0.1304291), wk =   0.0006106
        k(  198) = (   0.0000000   0.3396178  -0.1385809), wk =   0.0003053
        k(  199) = (   0.0000000   0.3735796   0.0000000), wk =   0.0003053
        k(  200) = (   0.0000000   0.3735796   0.0081518), wk =   0.0006106
        k(  201) = (   0.0000000   0.3735796   0.0163036), wk =   0.0006106
        k(  202) = (   0.0000000   0.3735796   0.0244555), wk =   0.0006106
        k(  203) = (   0.0000000   0.3735796   0.0326073), wk =   0.0006106
        k(  204) = (   0.0000000   0.3735796   0.0407591), wk =   0.0006106
        k(  205) = (   0.0000000   0.3735796   0.0489109), wk =   0.0006106
        k(  206) = (   0.0000000   0.3735796   0.0570627), wk =   0.0006106
        k(  207) = (   0.0000000   0.3735796   0.0652146), wk =   0.0006106
        k(  208) = (   0.0000000   0.3735796   0.0733664), wk =   0.0006106
        k(  209) = (   0.0000000   0.3735796   0.0815182), wk =   0.0006106
        k(  210) = (   0.0000000   0.3735796   0.0896700), wk =   0.0006106
        k(  211) = (   0.0000000   0.3735796   0.0978218), wk =   0.0006106
        k(  212) = (   0.0000000   0.3735796   0.1059737), wk =   0.0006106
        k(  213) = (   0.0000000   0.3735796   0.1141255), wk =   0.0006106
        k(  214) = (   0.0000000   0.3735796   0.1222773), wk =   0.0006106
        k(  215) = (   0.0000000   0.3735796   0.1304291), wk =   0.0006106
        k(  216) = (   0.0000000   0.3735796  -0.1385809), wk =   0.0003053
        k(  217) = (   0.0000000   0.4075414   0.0000000), wk =   0.0003053
        k(  218) = (   0.0000000   0.4075414   0.0081518), wk =   0.0006106
        k(  219) = (   0.0000000   0.4075414   0.0163036), wk =   0.0006106
        k(  220) = (   0.0000000   0.4075414   0.0244555), wk =   0.0006106
        k(  221) = (   0.0000000   0.4075414   0.0326073), wk =   0.0006106
        k(  222) = (   0.0000000   0.4075414   0.0407591), wk =   0.0006106
        k(  223) = (   0.0000000   0.4075414   0.0489109), wk =   0.0006106
        k(  224) = (   0.0000000   0.4075414   0.0570627), wk =   0.0006106
        k(  225) = (   0.0000000   0.4075414   0.0652146), wk =   0.0006106
        k(  226) = (   0.0000000   0.4075414   0.0733664), wk =   0.0006106
        k(  227) = (   0.0000000   0.4075414   0.0815182), wk =   0.0006106
        k(  228) = (   0.0000000   0.4075414   0.0896700), wk =   0.0006106
        k(  229) = (   0.0000000   0.4075414   0.0978218), wk =   0.0006106
        k(  230) = (   0.0000000   0.4075414   0.1059737), wk =   0.0006106
        k(  231) = (   0.0000000   0.4075414   0.1141255), wk =   0.0006106
        k(  232) = (   0.0000000   0.4075414   0.1222773), wk =   0.0006106
        k(  233) = (   0.0000000   0.4075414   0.1304291), wk =   0.0006106
        k(  234) = (   0.0000000   0.4075414  -0.1385809), wk =   0.0003053
        k(  235) = (   0.0000000   0.4415031   0.0000000), wk =   0.0003053
        k(  236) = (   0.0000000   0.4415031   0.0081518), wk =   0.0006106
        k(  237) = (   0.0000000   0.4415031   0.0163036), wk =   0.0006106
        k(  238) = (   0.0000000   0.4415031   0.0244555), wk =   0.0006106
        k(  239) = (   0.0000000   0.4415031   0.0326073), wk =   0.0006106
        k(  240) = (   0.0000000   0.4415031   0.0407591), wk =   0.0006106
        k(  241) = (   0.0000000   0.4415031   0.0489109), wk =   0.0006106
        k(  242) = (   0.0000000   0.4415031   0.0570627), wk =   0.0006106
        k(  243) = (   0.0000000   0.4415031   0.0652146), wk =   0.0006106
        k(  244) = (   0.0000000   0.4415031   0.0733664), wk =   0.0006106
        k(  245) = (   0.0000000   0.4415031   0.0815182), wk =   0.0006106
        k(  246) = (   0.0000000   0.4415031   0.0896700), wk =   0.0006106
        k(  247) = (   0.0000000   0.4415031   0.0978218), wk =   0.0006106
        k(  248) = (   0.0000000   0.4415031   0.1059737), wk =   0.0006106
        k(  249) = (   0.0000000   0.4415031   0.1141255), wk =   0.0006106
        k(  250) = (   0.0000000   0.4415031   0.1222773), wk =   0.0006106
        k(  251) = (   0.0000000   0.4415031   0.1304291), wk =   0.0006106
        k(  252) = (   0.0000000   0.4415031  -0.1385809), wk =   0.0003053
        k(  253) = (   0.0000000   0.4754649   0.0000000), wk =   0.0003053
        k(  254) = (   0.0000000   0.4754649   0.0081518), wk =   0.0006106
        k(  255) = (   0.0000000   0.4754649   0.0163036), wk =   0.0006106
        k(  256) = (   0.0000000   0.4754649   0.0244555), wk =   0.0006106
        k(  257) = (   0.0000000   0.4754649   0.0326073), wk =   0.0006106
        k(  258) = (   0.0000000   0.4754649   0.0407591), wk =   0.0006106
        k(  259) = (   0.0000000   0.4754649   0.0489109), wk =   0.0006106
        k(  260) = (   0.0000000   0.4754649   0.0570627), wk =   0.0006106
        k(  261) = (   0.0000000   0.4754649   0.0652146), wk =   0.0006106
        k(  262) = (   0.0000000   0.4754649   0.0733664), wk =   0.0006106
        k(  263) = (   0.0000000   0.4754649   0.0815182), wk =   0.0006106
        k(  264) = (   0.0000000   0.4754649   0.0896700), wk =   0.0006106
        k(  265) = (   0.0000000   0.4754649   0.0978218), wk =   0.0006106
        k(  266) = (   0.0000000   0.4754649   0.1059737), wk =   0.0006106
        k(  267) = (   0.0000000   0.4754649   0.1141255), wk =   0.0006106
        k(  268) = (   0.0000000   0.4754649   0.1222773), wk =   0.0006106
        k(  269) = (   0.0000000   0.4754649   0.1304291), wk =   0.0006106
        k(  270) = (   0.0000000   0.4754649  -0.1385809), wk =   0.0003053
        k(  271) = (   0.0000000   0.5094267   0.0000000), wk =   0.0003053
        k(  272) = (   0.0000000   0.5094267   0.0081518), wk =   0.0006106
        k(  273) = (   0.0000000   0.5094267   0.0163036), wk =   0.0006106
        k(  274) = (   0.0000000   0.5094267   0.0244555), wk =   0.0006106
        k(  275) = (   0.0000000   0.5094267   0.0326073), wk =   0.0006106
        k(  276) = (   0.0000000   0.5094267   0.0407591), wk =   0.0006106
        k(  277) = (   0.0000000   0.5094267   0.0489109), wk =   0.0006106
        k(  278) = (   0.0000000   0.5094267   0.0570627), wk =   0.0006106
        k(  279) = (   0.0000000   0.5094267   0.0652146), wk =   0.0006106
        k(  280) = (   0.0000000   0.5094267   0.0733664), wk =   0.0006106
        k(  281) = (   0.0000000   0.5094267   0.0815182), wk =   0.0006106
        k(  282) = (   0.0000000   0.5094267   0.0896700), wk =   0.0006106
        k(  283) = (   0.0000000   0.5094267   0.0978218), wk =   0.0006106
        k(  284) = (   0.0000000   0.5094267   0.1059737), wk =   0.0006106
        k(  285) = (   0.0000000   0.5094267   0.1141255), wk =   0.0006106
        k(  286) = (   0.0000000   0.5094267   0.1222773), wk =   0.0006106
        k(  287) = (   0.0000000   0.5094267   0.1304291), wk =   0.0006106
        k(  288) = (   0.0000000   0.5094267  -0.1385809), wk =   0.0003053
        k(  289) = (   0.0000000   0.5433885   0.0000000), wk =   0.0003053
        k(  290) = (   0.0000000   0.5433885   0.0081518), wk =   0.0006106
        k(  291) = (   0.0000000   0.5433885   0.0163036), wk =   0.0006106
        k(  292) = (   0.0000000   0.5433885   0.0244555), wk =   0.0006106
        k(  293) = (   0.0000000   0.5433885   0.0326073), wk =   0.0006106
        k(  294) = (   0.0000000   0.5433885   0.0407591), wk =   0.0006106
        k(  295) = (   0.0000000   0.5433885   0.0489109), wk =   0.0006106
        k(  296) = (   0.0000000   0.5433885   0.0570627), wk =   0.0006106
        k(  297) = (   0.0000000   0.5433885   0.0652146), wk =   0.0006106
        k(  298) = (   0.0000000   0.5433885   0.0733664), wk =   0.0006106
        k(  299) = (   0.0000000   0.5433885   0.0815182), wk =   0.0006106
        k(  300) = (   0.0000000   0.5433885   0.0896700), wk =   0.0006106
        k(  301) = (   0.0000000   0.5433885   0.0978218), wk =   0.0006106
        k(  302) = (   0.0000000   0.5433885   0.1059737), wk =   0.0006106
        k(  303) = (   0.0000000   0.5433885   0.1141255), wk =   0.0006106
        k(  304) = (   0.0000000   0.5433885   0.1222773), wk =   0.0006106
        k(  305) = (   0.0000000   0.5433885   0.1304291), wk =   0.0006106
        k(  306) = (   0.0000000   0.5433885  -0.1385809), wk =   0.0003053
        k(  307) = (   0.0000000  -0.5773503   0.0000000), wk =   0.0001527
        k(  308) = (   0.0000000  -0.5773503   0.0081518), wk =   0.0003053
        k(  309) = (   0.0000000  -0.5773503   0.0163036), wk =   0.0003053
        k(  310) = (   0.0000000  -0.5773503   0.0244555), wk =   0.0003053
        k(  311) = (   0.0000000  -0.5773503   0.0326073), wk =   0.0003053
        k(  312) = (   0.0000000  -0.5773503   0.0407591), wk =   0.0003053
        k(  313) = (   0.0000000  -0.5773503   0.0489109), wk =   0.0003053
        k(  314) = (   0.0000000  -0.5773503   0.0570627), wk =   0.0003053
        k(  315) = (   0.0000000  -0.5773503   0.0652146), wk =   0.0003053
        k(  316) = (   0.0000000  -0.5773503   0.0733664), wk =   0.0003053
        k(  317) = (   0.0000000  -0.5773503   0.0815182), wk =   0.0003053
        k(  318) = (   0.0000000  -0.5773503   0.0896700), wk =   0.0003053
        k(  319) = (   0.0000000  -0.5773503   0.0978218), wk =   0.0003053
        k(  320) = (   0.0000000  -0.5773503   0.1059737), wk =   0.0003053
        k(  321) = (   0.0000000  -0.5773503   0.1141255), wk =   0.0003053
        k(  322) = (   0.0000000  -0.5773503   0.1222773), wk =   0.0003053
        k(  323) = (   0.0000000  -0.5773503   0.1304291), wk =   0.0003053
        k(  324) = (   0.0000000  -0.5773503  -0.1385809), wk =   0.0001527
        k(  325) = (   0.0294118   0.0509427   0.0000000), wk =   0.0003053
        k(  326) = (   0.0294118   0.0509427   0.0081518), wk =   0.0006106
        k(  327) = (   0.0294118   0.0509427   0.0163036), wk =   0.0006106
        k(  328) = (   0.0294118   0.0509427   0.0244555), wk =   0.0006106
        k(  329) = (   0.0294118   0.0509427   0.0326073), wk =   0.0006106
        k(  330) = (   0.0294118   0.0509427   0.0407591), wk =   0.0006106
        k(  331) = (   0.0294118   0.0509427   0.0489109), wk =   0.0006106
        k(  332) = (   0.0294118   0.0509427   0.0570627), wk =   0.0006106
        k(  333) = (   0.0294118   0.0509427   0.0652146), wk =   0.0006106
        k(  334) = (   0.0294118   0.0509427   0.0733664), wk =   0.0006106
        k(  335) = (   0.0294118   0.0509427   0.0815182), wk =   0.0006106
        k(  336) = (   0.0294118   0.0509427   0.0896700), wk =   0.0006106
        k(  337) = (   0.0294118   0.0509427   0.0978218), wk =   0.0006106
        k(  338) = (   0.0294118   0.0509427   0.1059737), wk =   0.0006106
        k(  339) = (   0.0294118   0.0509427   0.1141255), wk =   0.0006106
        k(  340) = (   0.0294118   0.0509427   0.1222773), wk =   0.0006106
        k(  341) = (   0.0294118   0.0509427   0.1304291), wk =   0.0006106
        k(  342) = (   0.0294118   0.0509427  -0.1385809), wk =   0.0003053
        k(  343) = (   0.0294118   0.0849045   0.0000000), wk =   0.0006106
        k(  344) = (   0.0294118   0.0849045   0.0081518), wk =   0.0012212
        k(  345) = (   0.0294118   0.0849045   0.0163036), wk =   0.0012212
        k(  346) = (   0.0294118   0.0849045   0.0244555), wk =   0.0012212
        k(  347) = (   0.0294118   0.0849045   0.0326073), wk =   0.0012212
        k(  348) = (   0.0294118   0.0849045   0.0407591), wk =   0.0012212
        k(  349) = (   0.0294118   0.0849045   0.0489109), wk =   0.0012212
        k(  350) = (   0.0294118   0.0849045   0.0570627), wk =   0.0012212
        k(  351) = (   0.0294118   0.0849045   0.0652146), wk =   0.0012212
        k(  352) = (   0.0294118   0.0849045   0.0733664), wk =   0.0012212
        k(  353) = (   0.0294118   0.0849045   0.0815182), wk =   0.0012212
        k(  354) = (   0.0294118   0.0849045   0.0896700), wk =   0.0012212
        k(  355) = (   0.0294118   0.0849045   0.0978218), wk =   0.0012212
        k(  356) = (   0.0294118   0.0849045   0.1059737), wk =   0.0012212
        k(  357) = (   0.0294118   0.0849045   0.1141255), wk =   0.0012212
        k(  358) = (   0.0294118   0.0849045   0.1222773), wk =   0.0012212
        k(  359) = (   0.0294118   0.0849045   0.1304291), wk =   0.0012212
        k(  360) = (   0.0294118   0.0849045  -0.1385809), wk =   0.0006106
        k(  361) = (   0.0294118   0.1188662   0.0000000), wk =   0.0006106
        k(  362) = (   0.0294118   0.1188662   0.0081518), wk =   0.0012212
        k(  363) = (   0.0294118   0.1188662   0.0163036), wk =   0.0012212
        k(  364) = (   0.0294118   0.1188662   0.0244555), wk =   0.0012212
        k(  365) = (   0.0294118   0.1188662   0.0326073), wk =   0.0012212
        k(  366) = (   0.0294118   0.1188662   0.0407591), wk =   0.0012212
        k(  367) = (   0.0294118   0.1188662   0.0489109), wk =   0.0012212
        k(  368) = (   0.0294118   0.1188662   0.0570627), wk =   0.0012212
        k(  369) = (   0.0294118   0.1188662   0.0652146), wk =   0.0012212
        k(  370) = (   0.0294118   0.1188662   0.0733664), wk =   0.0012212
        k(  371) = (   0.0294118   0.1188662   0.0815182), wk =   0.0012212
        k(  372) = (   0.0294118   0.1188662   0.0896700), wk =   0.0012212
        k(  373) = (   0.0294118   0.1188662   0.0978218), wk =   0.0012212
        k(  374) = (   0.0294118   0.1188662   0.1059737), wk =   0.0012212
        k(  375) = (   0.0294118   0.1188662   0.1141255), wk =   0.0012212
        k(  376) = (   0.0294118   0.1188662   0.1222773), wk =   0.0012212
        k(  377) = (   0.0294118   0.1188662   0.1304291), wk =   0.0012212
        k(  378) = (   0.0294118   0.1188662  -0.1385809), wk =   0.0006106
        k(  379) = (   0.0294118   0.1528280   0.0000000), wk =   0.0006106
        k(  380) = (   0.0294118   0.1528280   0.0081518), wk =   0.0012212
        k(  381) = (   0.0294118   0.1528280   0.0163036), wk =   0.0012212
        k(  382) = (   0.0294118   0.1528280   0.0244555), wk =   0.0012212
        k(  383) = (   0.0294118   0.1528280   0.0326073), wk =   0.0012212
        k(  384) = (   0.0294118   0.1528280   0.0407591), wk =   0.0012212
        k(  385) = (   0.0294118   0.1528280   0.0489109), wk =   0.0012212
        k(  386) = (   0.0294118   0.1528280   0.0570627), wk =   0.0012212
        k(  387) = (   0.0294118   0.1528280   0.0652146), wk =   0.0012212
        k(  388) = (   0.0294118   0.1528280   0.0733664), wk =   0.0012212
        k(  389) = (   0.0294118   0.1528280   0.0815182), wk =   0.0012212
        k(  390) = (   0.0294118   0.1528280   0.0896700), wk =   0.0012212
        k(  391) = (   0.0294118   0.1528280   0.0978218), wk =   0.0012212
        k(  392) = (   0.0294118   0.1528280   0.1059737), wk =   0.0012212
        k(  393) = (   0.0294118   0.1528280   0.1141255), wk =   0.0012212
        k(  394) = (   0.0294118   0.1528280   0.1222773), wk =   0.0012212
        k(  395) = (   0.0294118   0.1528280   0.1304291), wk =   0.0012212
        k(  396) = (   0.0294118   0.1528280  -0.1385809), wk =   0.0006106
        k(  397) = (   0.0294118   0.1867898   0.0000000), wk =   0.0006106
        k(  398) = (   0.0294118   0.1867898   0.0081518), wk =   0.0012212
        k(  399) = (   0.0294118   0.1867898   0.0163036), wk =   0.0012212
        k(  400) = (   0.0294118   0.1867898   0.0244555), wk =   0.0012212
        k(  401) = (   0.0294118   0.1867898   0.0326073), wk =   0.0012212
        k(  402) = (   0.0294118   0.1867898   0.0407591), wk =   0.0012212
        k(  403) = (   0.0294118   0.1867898   0.0489109), wk =   0.0012212
        k(  404) = (   0.0294118   0.1867898   0.0570627), wk =   0.0012212
        k(  405) = (   0.0294118   0.1867898   0.0652146), wk =   0.0012212
        k(  406) = (   0.0294118   0.1867898   0.0733664), wk =   0.0012212
        k(  407) = (   0.0294118   0.1867898   0.0815182), wk =   0.0012212
        k(  408) = (   0.0294118   0.1867898   0.0896700), wk =   0.0012212
        k(  409) = (   0.0294118   0.1867898   0.0978218), wk =   0.0012212
        k(  410) = (   0.0294118   0.1867898   0.1059737), wk =   0.0012212
        k(  411) = (   0.0294118   0.1867898   0.1141255), wk =   0.0012212
        k(  412) = (   0.0294118   0.1867898   0.1222773), wk =   0.0012212
        k(  413) = (   0.0294118   0.1867898   0.1304291), wk =   0.0012212
        k(  414) = (   0.0294118   0.1867898  -0.1385809), wk =   0.0006106
        k(  415) = (   0.0294118   0.2207516   0.0000000), wk =   0.0006106
        k(  416) = (   0.0294118   0.2207516   0.0081518), wk =   0.0012212
        k(  417) = (   0.0294118   0.2207516   0.0163036), wk =   0.0012212
        k(  418) = (   0.0294118   0.2207516   0.0244555), wk =   0.0012212
        k(  419) = (   0.0294118   0.2207516   0.0326073), wk =   0.0012212
        k(  420) = (   0.0294118   0.2207516   0.0407591), wk =   0.0012212
        k(  421) = (   0.0294118   0.2207516   0.0489109), wk =   0.0012212
        k(  422) = (   0.0294118   0.2207516   0.0570627), wk =   0.0012212
        k(  423) = (   0.0294118   0.2207516   0.0652146), wk =   0.0012212
        k(  424) = (   0.0294118   0.2207516   0.0733664), wk =   0.0012212
        k(  425) = (   0.0294118   0.2207516   0.0815182), wk =   0.0012212
        k(  426) = (   0.0294118   0.2207516   0.0896700), wk =   0.0012212
        k(  427) = (   0.0294118   0.2207516   0.0978218), wk =   0.0012212
        k(  428) = (   0.0294118   0.2207516   0.1059737), wk =   0.0012212
        k(  429) = (   0.0294118   0.2207516   0.1141255), wk =   0.0012212
        k(  430) = (   0.0294118   0.2207516   0.1222773), wk =   0.0012212
        k(  431) = (   0.0294118   0.2207516   0.1304291), wk =   0.0012212
        k(  432) = (   0.0294118   0.2207516  -0.1385809), wk =   0.0006106
        k(  433) = (   0.0294118   0.2547134   0.0000000), wk =   0.0006106
        k(  434) = (   0.0294118   0.2547134   0.0081518), wk =   0.0012212
        k(  435) = (   0.0294118   0.2547134   0.0163036), wk =   0.0012212
        k(  436) = (   0.0294118   0.2547134   0.0244555), wk =   0.0012212
        k(  437) = (   0.0294118   0.2547134   0.0326073), wk =   0.0012212
        k(  438) = (   0.0294118   0.2547134   0.0407591), wk =   0.0012212
        k(  439) = (   0.0294118   0.2547134   0.0489109), wk =   0.0012212
        k(  440) = (   0.0294118   0.2547134   0.0570627), wk =   0.0012212
        k(  441) = (   0.0294118   0.2547134   0.0652146), wk =   0.0012212
        k(  442) = (   0.0294118   0.2547134   0.0733664), wk =   0.0012212
        k(  443) = (   0.0294118   0.2547134   0.0815182), wk =   0.0012212
        k(  444) = (   0.0294118   0.2547134   0.0896700), wk =   0.0012212
        k(  445) = (   0.0294118   0.2547134   0.0978218), wk =   0.0012212
        k(  446) = (   0.0294118   0.2547134   0.1059737), wk =   0.0012212
        k(  447) = (   0.0294118   0.2547134   0.1141255), wk =   0.0012212
        k(  448) = (   0.0294118   0.2547134   0.1222773), wk =   0.0012212
        k(  449) = (   0.0294118   0.2547134   0.1304291), wk =   0.0012212
        k(  450) = (   0.0294118   0.2547134  -0.1385809), wk =   0.0006106
        k(  451) = (   0.0294118   0.2886751   0.0000000), wk =   0.0006106
        k(  452) = (   0.0294118   0.2886751   0.0081518), wk =   0.0012212
        k(  453) = (   0.0294118   0.2886751   0.0163036), wk =   0.0012212
        k(  454) = (   0.0294118   0.2886751   0.0244555), wk =   0.0012212
        k(  455) = (   0.0294118   0.2886751   0.0326073), wk =   0.0012212
        k(  456) = (   0.0294118   0.2886751   0.0407591), wk =   0.0012212
        k(  457) = (   0.0294118   0.2886751   0.0489109), wk =   0.0012212
        k(  458) = (   0.0294118   0.2886751   0.0570627), wk =   0.0012212
        k(  459) = (   0.0294118   0.2886751   0.0652146), wk =   0.0012212
        k(  460) = (   0.0294118   0.2886751   0.0733664), wk =   0.0012212
        k(  461) = (   0.0294118   0.2886751   0.0815182), wk =   0.0012212
        k(  462) = (   0.0294118   0.2886751   0.0896700), wk =   0.0012212
        k(  463) = (   0.0294118   0.2886751   0.0978218), wk =   0.0012212
        k(  464) = (   0.0294118   0.2886751   0.1059737), wk =   0.0012212
        k(  465) = (   0.0294118   0.2886751   0.1141255), wk =   0.0012212
        k(  466) = (   0.0294118   0.2886751   0.1222773), wk =   0.0012212
        k(  467) = (   0.0294118   0.2886751   0.1304291), wk =   0.0012212
        k(  468) = (   0.0294118   0.2886751  -0.1385809), wk =   0.0006106
        k(  469) = (   0.0294118   0.3226369   0.0000000), wk =   0.0006106
        k(  470) = (   0.0294118   0.3226369   0.0081518), wk =   0.0012212
        k(  471) = (   0.0294118   0.3226369   0.0163036), wk =   0.0012212
        k(  472) = (   0.0294118   0.3226369   0.0244555), wk =   0.0012212
        k(  473) = (   0.0294118   0.3226369   0.0326073), wk =   0.0012212
        k(  474) = (   0.0294118   0.3226369   0.0407591), wk =   0.0012212
        k(  475) = (   0.0294118   0.3226369   0.0489109), wk =   0.0012212
        k(  476) = (   0.0294118   0.3226369   0.0570627), wk =   0.0012212
        k(  477) = (   0.0294118   0.3226369   0.0652146), wk =   0.0012212
        k(  478) = (   0.0294118   0.3226369   0.0733664), wk =   0.0012212
        k(  479) = (   0.0294118   0.3226369   0.0815182), wk =   0.0012212
        k(  480) = (   0.0294118   0.3226369   0.0896700), wk =   0.0012212
        k(  481) = (   0.0294118   0.3226369   0.0978218), wk =   0.0012212
        k(  482) = (   0.0294118   0.3226369   0.1059737), wk =   0.0012212
        k(  483) = (   0.0294118   0.3226369   0.1141255), wk =   0.0012212
        k(  484) = (   0.0294118   0.3226369   0.1222773), wk =   0.0012212
        k(  485) = (   0.0294118   0.3226369   0.1304291), wk =   0.0012212
        k(  486) = (   0.0294118   0.3226369  -0.1385809), wk =   0.0006106
        k(  487) = (   0.0294118   0.3565987   0.0000000), wk =   0.0006106
        k(  488) = (   0.0294118   0.3565987   0.0081518), wk =   0.0012212
        k(  489) = (   0.0294118   0.3565987   0.0163036), wk =   0.0012212
        k(  490) = (   0.0294118   0.3565987   0.0244555), wk =   0.0012212
        k(  491) = (   0.0294118   0.3565987   0.0326073), wk =   0.0012212
        k(  492) = (   0.0294118   0.3565987   0.0407591), wk =   0.0012212
        k(  493) = (   0.0294118   0.3565987   0.0489109), wk =   0.0012212
        k(  494) = (   0.0294118   0.3565987   0.0570627), wk =   0.0012212
        k(  495) = (   0.0294118   0.3565987   0.0652146), wk =   0.0012212
        k(  496) = (   0.0294118   0.3565987   0.0733664), wk =   0.0012212
        k(  497) = (   0.0294118   0.3565987   0.0815182), wk =   0.0012212
        k(  498) = (   0.0294118   0.3565987   0.0896700), wk =   0.0012212
        k(  499) = (   0.0294118   0.3565987   0.0978218), wk =   0.0012212
        k(  500) = (   0.0294118   0.3565987   0.1059737), wk =   0.0012212
        k(  501) = (   0.0294118   0.3565987   0.1141255), wk =   0.0012212
        k(  502) = (   0.0294118   0.3565987   0.1222773), wk =   0.0012212
        k(  503) = (   0.0294118   0.3565987   0.1304291), wk =   0.0012212
        k(  504) = (   0.0294118   0.3565987  -0.1385809), wk =   0.0006106
        k(  505) = (   0.0294118   0.3905605   0.0000000), wk =   0.0006106
        k(  506) = (   0.0294118   0.3905605   0.0081518), wk =   0.0012212
        k(  507) = (   0.0294118   0.3905605   0.0163036), wk =   0.0012212
        k(  508) = (   0.0294118   0.3905605   0.0244555), wk =   0.0012212
        k(  509) = (   0.0294118   0.3905605   0.0326073), wk =   0.0012212
        k(  510) = (   0.0294118   0.3905605   0.0407591), wk =   0.0012212
        k(  511) = (   0.0294118   0.3905605   0.0489109), wk =   0.0012212
        k(  512) = (   0.0294118   0.3905605   0.0570627), wk =   0.0012212
        k(  513) = (   0.0294118   0.3905605   0.0652146), wk =   0.0012212
        k(  514) = (   0.0294118   0.3905605   0.0733664), wk =   0.0012212
        k(  515) = (   0.0294118   0.3905605   0.0815182), wk =   0.0012212
        k(  516) = (   0.0294118   0.3905605   0.0896700), wk =   0.0012212
        k(  517) = (   0.0294118   0.3905605   0.0978218), wk =   0.0012212
        k(  518) = (   0.0294118   0.3905605   0.1059737), wk =   0.0012212
        k(  519) = (   0.0294118   0.3905605   0.1141255), wk =   0.0012212
        k(  520) = (   0.0294118   0.3905605   0.1222773), wk =   0.0012212
        k(  521) = (   0.0294118   0.3905605   0.1304291), wk =   0.0012212
        k(  522) = (   0.0294118   0.3905605  -0.1385809), wk =   0.0006106
        k(  523) = (   0.0294118   0.4245223   0.0000000), wk =   0.0006106
        k(  524) = (   0.0294118   0.4245223   0.0081518), wk =   0.0012212
        k(  525) = (   0.0294118   0.4245223   0.0163036), wk =   0.0012212
        k(  526) = (   0.0294118   0.4245223   0.0244555), wk =   0.0012212
        k(  527) = (   0.0294118   0.4245223   0.0326073), wk =   0.0012212
        k(  528) = (   0.0294118   0.4245223   0.0407591), wk =   0.0012212
        k(  529) = (   0.0294118   0.4245223   0.0489109), wk =   0.0012212
        k(  530) = (   0.0294118   0.4245223   0.0570627), wk =   0.0012212
        k(  531) = (   0.0294118   0.4245223   0.0652146), wk =   0.0012212
        k(  532) = (   0.0294118   0.4245223   0.0733664), wk =   0.0012212
        k(  533) = (   0.0294118   0.4245223   0.0815182), wk =   0.0012212
        k(  534) = (   0.0294118   0.4245223   0.0896700), wk =   0.0012212
        k(  535) = (   0.0294118   0.4245223   0.0978218), wk =   0.0012212
        k(  536) = (   0.0294118   0.4245223   0.1059737), wk =   0.0012212
        k(  537) = (   0.0294118   0.4245223   0.1141255), wk =   0.0012212
        k(  538) = (   0.0294118   0.4245223   0.1222773), wk =   0.0012212
        k(  539) = (   0.0294118   0.4245223   0.1304291), wk =   0.0012212
        k(  540) = (   0.0294118   0.4245223  -0.1385809), wk =   0.0006106
        k(  541) = (   0.0294118   0.4584840   0.0000000), wk =   0.0006106
        k(  542) = (   0.0294118   0.4584840   0.0081518), wk =   0.0012212
        k(  543) = (   0.0294118   0.4584840   0.0163036), wk =   0.0012212
        k(  544) = (   0.0294118   0.4584840   0.0244555), wk =   0.0012212
        k(  545) = (   0.0294118   0.4584840   0.0326073), wk =   0.0012212
        k(  546) = (   0.0294118   0.4584840   0.0407591), wk =   0.0012212
        k(  547) = (   0.0294118   0.4584840   0.0489109), wk =   0.0012212
        k(  548) = (   0.0294118   0.4584840   0.0570627), wk =   0.0012212
        k(  549) = (   0.0294118   0.4584840   0.0652146), wk =   0.0012212
        k(  550) = (   0.0294118   0.4584840   0.0733664), wk =   0.0012212
        k(  551) = (   0.0294118   0.4584840   0.0815182), wk =   0.0012212
        k(  552) = (   0.0294118   0.4584840   0.0896700), wk =   0.0012212
        k(  553) = (   0.0294118   0.4584840   0.0978218), wk =   0.0012212
        k(  554) = (   0.0294118   0.4584840   0.1059737), wk =   0.0012212
        k(  555) = (   0.0294118   0.4584840   0.1141255), wk =   0.0012212
        k(  556) = (   0.0294118   0.4584840   0.1222773), wk =   0.0012212
        k(  557) = (   0.0294118   0.4584840   0.1304291), wk =   0.0012212
        k(  558) = (   0.0294118   0.4584840  -0.1385809), wk =   0.0006106
        k(  559) = (   0.0294118   0.4924458   0.0000000), wk =   0.0006106
        k(  560) = (   0.0294118   0.4924458   0.0081518), wk =   0.0012212
        k(  561) = (   0.0294118   0.4924458   0.0163036), wk =   0.0012212
        k(  562) = (   0.0294118   0.4924458   0.0244555), wk =   0.0012212
        k(  563) = (   0.0294118   0.4924458   0.0326073), wk =   0.0012212
        k(  564) = (   0.0294118   0.4924458   0.0407591), wk =   0.0012212
        k(  565) = (   0.0294118   0.4924458   0.0489109), wk =   0.0012212
        k(  566) = (   0.0294118   0.4924458   0.0570627), wk =   0.0012212
        k(  567) = (   0.0294118   0.4924458   0.0652146), wk =   0.0012212
        k(  568) = (   0.0294118   0.4924458   0.0733664), wk =   0.0012212
        k(  569) = (   0.0294118   0.4924458   0.0815182), wk =   0.0012212
        k(  570) = (   0.0294118   0.4924458   0.0896700), wk =   0.0012212
        k(  571) = (   0.0294118   0.4924458   0.0978218), wk =   0.0012212
        k(  572) = (   0.0294118   0.4924458   0.1059737), wk =   0.0012212
        k(  573) = (   0.0294118   0.4924458   0.1141255), wk =   0.0012212
        k(  574) = (   0.0294118   0.4924458   0.1222773), wk =   0.0012212
        k(  575) = (   0.0294118   0.4924458   0.1304291), wk =   0.0012212
        k(  576) = (   0.0294118   0.4924458  -0.1385809), wk =   0.0006106
        k(  577) = (   0.0294118   0.5264076   0.0000000), wk =   0.0006106
        k(  578) = (   0.0294118   0.5264076   0.0081518), wk =   0.0012212
        k(  579) = (   0.0294118   0.5264076   0.0163036), wk =   0.0012212
        k(  580) = (   0.0294118   0.5264076   0.0244555), wk =   0.0012212
        k(  581) = (   0.0294118   0.5264076   0.0326073), wk =   0.0012212
        k(  582) = (   0.0294118   0.5264076   0.0407591), wk =   0.0012212
        k(  583) = (   0.0294118   0.5264076   0.0489109), wk =   0.0012212
        k(  584) = (   0.0294118   0.5264076   0.0570627), wk =   0.0012212
        k(  585) = (   0.0294118   0.5264076   0.0652146), wk =   0.0012212
        k(  586) = (   0.0294118   0.5264076   0.0733664), wk =   0.0012212
        k(  587) = (   0.0294118   0.5264076   0.0815182), wk =   0.0012212
        k(  588) = (   0.0294118   0.5264076   0.0896700), wk =   0.0012212
        k(  589) = (   0.0294118   0.5264076   0.0978218), wk =   0.0012212
        k(  590) = (   0.0294118   0.5264076   0.1059737), wk =   0.0012212
        k(  591) = (   0.0294118   0.5264076   0.1141255), wk =   0.0012212
        k(  592) = (   0.0294118   0.5264076   0.1222773), wk =   0.0012212
        k(  593) = (   0.0294118   0.5264076   0.1304291), wk =   0.0012212
        k(  594) = (   0.0294118   0.5264076  -0.1385809), wk =   0.0006106
        k(  595) = (   0.0294118   0.5603694   0.0000000), wk =   0.0006106
        k(  596) = (   0.0294118   0.5603694   0.0081518), wk =   0.0012212
        k(  597) = (   0.0294118   0.5603694   0.0163036), wk =   0.0012212
        k(  598) = (   0.0294118   0.5603694   0.0244555), wk =   0.0012212
        k(  599) = (   0.0294118   0.5603694   0.0326073), wk =   0.0012212
        k(  600) = (   0.0294118   0.5603694   0.0407591), wk =   0.0012212
        k(  601) = (   0.0294118   0.5603694   0.0489109), wk =   0.0012212
        k(  602) = (   0.0294118   0.5603694   0.0570627), wk =   0.0012212
        k(  603) = (   0.0294118   0.5603694   0.0652146), wk =   0.0012212
        k(  604) = (   0.0294118   0.5603694   0.0733664), wk =   0.0012212
        k(  605) = (   0.0294118   0.5603694   0.0815182), wk =   0.0012212
        k(  606) = (   0.0294118   0.5603694   0.0896700), wk =   0.0012212
        k(  607) = (   0.0294118   0.5603694   0.0978218), wk =   0.0012212
        k(  608) = (   0.0294118   0.5603694   0.1059737), wk =   0.0012212
        k(  609) = (   0.0294118   0.5603694   0.1141255), wk =   0.0012212
        k(  610) = (   0.0294118   0.5603694   0.1222773), wk =   0.0012212
        k(  611) = (   0.0294118   0.5603694   0.1304291), wk =   0.0012212
        k(  612) = (   0.0294118   0.5603694  -0.1385809), wk =   0.0006106
        k(  613) = (   0.0588235   0.1018853   0.0000000), wk =   0.0003053
        k(  614) = (   0.0588235   0.1018853   0.0081518), wk =   0.0006106
        k(  615) = (   0.0588235   0.1018853   0.0163036), wk =   0.0006106
        k(  616) = (   0.0588235   0.1018853   0.0244555), wk =   0.0006106
        k(  617) = (   0.0588235   0.1018853   0.0326073), wk =   0.0006106
        k(  618) = (   0.0588235   0.1018853   0.0407591), wk =   0.0006106
        k(  619) = (   0.0588235   0.1018853   0.0489109), wk =   0.0006106
        k(  620) = (   0.0588235   0.1018853   0.0570627), wk =   0.0006106
        k(  621) = (   0.0588235   0.1018853   0.0652146), wk =   0.0006106
        k(  622) = (   0.0588235   0.1018853   0.0733664), wk =   0.0006106
        k(  623) = (   0.0588235   0.1018853   0.0815182), wk =   0.0006106
        k(  624) = (   0.0588235   0.1018853   0.0896700), wk =   0.0006106
        k(  625) = (   0.0588235   0.1018853   0.0978218), wk =   0.0006106
        k(  626) = (   0.0588235   0.1018853   0.1059737), wk =   0.0006106
        k(  627) = (   0.0588235   0.1018853   0.1141255), wk =   0.0006106
        k(  628) = (   0.0588235   0.1018853   0.1222773), wk =   0.0006106
        k(  629) = (   0.0588235   0.1018853   0.1304291), wk =   0.0006106
        k(  630) = (   0.0588235   0.1018853  -0.1385809), wk =   0.0003053
        k(  631) = (   0.0588235   0.1358471   0.0000000), wk =   0.0006106
        k(  632) = (   0.0588235   0.1358471   0.0081518), wk =   0.0012212
        k(  633) = (   0.0588235   0.1358471   0.0163036), wk =   0.0012212
        k(  634) = (   0.0588235   0.1358471   0.0244555), wk =   0.0012212
        k(  635) = (   0.0588235   0.1358471   0.0326073), wk =   0.0012212
        k(  636) = (   0.0588235   0.1358471   0.0407591), wk =   0.0012212
        k(  637) = (   0.0588235   0.1358471   0.0489109), wk =   0.0012212
        k(  638) = (   0.0588235   0.1358471   0.0570627), wk =   0.0012212
        k(  639) = (   0.0588235   0.1358471   0.0652146), wk =   0.0012212
        k(  640) = (   0.0588235   0.1358471   0.0733664), wk =   0.0012212
        k(  641) = (   0.0588235   0.1358471   0.0815182), wk =   0.0012212
        k(  642) = (   0.0588235   0.1358471   0.0896700), wk =   0.0012212
        k(  643) = (   0.0588235   0.1358471   0.0978218), wk =   0.0012212
        k(  644) = (   0.0588235   0.1358471   0.1059737), wk =   0.0012212
        k(  645) = (   0.0588235   0.1358471   0.1141255), wk =   0.0012212
        k(  646) = (   0.0588235   0.1358471   0.1222773), wk =   0.0012212
        k(  647) = (   0.0588235   0.1358471   0.1304291), wk =   0.0012212
        k(  648) = (   0.0588235   0.1358471  -0.1385809), wk =   0.0006106
        k(  649) = (   0.0588235   0.1698089   0.0000000), wk =   0.0006106
        k(  650) = (   0.0588235   0.1698089   0.0081518), wk =   0.0012212
        k(  651) = (   0.0588235   0.1698089   0.0163036), wk =   0.0012212
        k(  652) = (   0.0588235   0.1698089   0.0244555), wk =   0.0012212
        k(  653) = (   0.0588235   0.1698089   0.0326073), wk =   0.0012212
        k(  654) = (   0.0588235   0.1698089   0.0407591), wk =   0.0012212
        k(  655) = (   0.0588235   0.1698089   0.0489109), wk =   0.0012212
        k(  656) = (   0.0588235   0.1698089   0.0570627), wk =   0.0012212
        k(  657) = (   0.0588235   0.1698089   0.0652146), wk =   0.0012212
        k(  658) = (   0.0588235   0.1698089   0.0733664), wk =   0.0012212
        k(  659) = (   0.0588235   0.1698089   0.0815182), wk =   0.0012212
        k(  660) = (   0.0588235   0.1698089   0.0896700), wk =   0.0012212
        k(  661) = (   0.0588235   0.1698089   0.0978218), wk =   0.0012212
        k(  662) = (   0.0588235   0.1698089   0.1059737), wk =   0.0012212
        k(  663) = (   0.0588235   0.1698089   0.1141255), wk =   0.0012212
        k(  664) = (   0.0588235   0.1698089   0.1222773), wk =   0.0012212
        k(  665) = (   0.0588235   0.1698089   0.1304291), wk =   0.0012212
        k(  666) = (   0.0588235   0.1698089  -0.1385809), wk =   0.0006106
        k(  667) = (   0.0588235   0.2037707   0.0000000), wk =   0.0006106
        k(  668) = (   0.0588235   0.2037707   0.0081518), wk =   0.0012212
        k(  669) = (   0.0588235   0.2037707   0.0163036), wk =   0.0012212
        k(  670) = (   0.0588235   0.2037707   0.0244555), wk =   0.0012212
        k(  671) = (   0.0588235   0.2037707   0.0326073), wk =   0.0012212
        k(  672) = (   0.0588235   0.2037707   0.0407591), wk =   0.0012212
        k(  673) = (   0.0588235   0.2037707   0.0489109), wk =   0.0012212
        k(  674) = (   0.0588235   0.2037707   0.0570627), wk =   0.0012212
        k(  675) = (   0.0588235   0.2037707   0.0652146), wk =   0.0012212
        k(  676) = (   0.0588235   0.2037707   0.0733664), wk =   0.0012212
        k(  677) = (   0.0588235   0.2037707   0.0815182), wk =   0.0012212
        k(  678) = (   0.0588235   0.2037707   0.0896700), wk =   0.0012212
        k(  679) = (   0.0588235   0.2037707   0.0978218), wk =   0.0012212
        k(  680) = (   0.0588235   0.2037707   0.1059737), wk =   0.0012212
        k(  681) = (   0.0588235   0.2037707   0.1141255), wk =   0.0012212
        k(  682) = (   0.0588235   0.2037707   0.1222773), wk =   0.0012212
        k(  683) = (   0.0588235   0.2037707   0.1304291), wk =   0.0012212
        k(  684) = (   0.0588235   0.2037707  -0.1385809), wk =   0.0006106
        k(  685) = (   0.0588235   0.2377325   0.0000000), wk =   0.0006106
        k(  686) = (   0.0588235   0.2377325   0.0081518), wk =   0.0012212
        k(  687) = (   0.0588235   0.2377325   0.0163036), wk =   0.0012212
        k(  688) = (   0.0588235   0.2377325   0.0244555), wk =   0.0012212
        k(  689) = (   0.0588235   0.2377325   0.0326073), wk =   0.0012212
        k(  690) = (   0.0588235   0.2377325   0.0407591), wk =   0.0012212
        k(  691) = (   0.0588235   0.2377325   0.0489109), wk =   0.0012212
        k(  692) = (   0.0588235   0.2377325   0.0570627), wk =   0.0012212
        k(  693) = (   0.0588235   0.2377325   0.0652146), wk =   0.0012212
        k(  694) = (   0.0588235   0.2377325   0.0733664), wk =   0.0012212
        k(  695) = (   0.0588235   0.2377325   0.0815182), wk =   0.0012212
        k(  696) = (   0.0588235   0.2377325   0.0896700), wk =   0.0012212
        k(  697) = (   0.0588235   0.2377325   0.0978218), wk =   0.0012212
        k(  698) = (   0.0588235   0.2377325   0.1059737), wk =   0.0012212
        k(  699) = (   0.0588235   0.2377325   0.1141255), wk =   0.0012212
        k(  700) = (   0.0588235   0.2377325   0.1222773), wk =   0.0012212
        k(  701) = (   0.0588235   0.2377325   0.1304291), wk =   0.0012212
        k(  702) = (   0.0588235   0.2377325  -0.1385809), wk =   0.0006106
        k(  703) = (   0.0588235   0.2716942   0.0000000), wk =   0.0006106
        k(  704) = (   0.0588235   0.2716942   0.0081518), wk =   0.0012212
        k(  705) = (   0.0588235   0.2716942   0.0163036), wk =   0.0012212
        k(  706) = (   0.0588235   0.2716942   0.0244555), wk =   0.0012212
        k(  707) = (   0.0588235   0.2716942   0.0326073), wk =   0.0012212
        k(  708) = (   0.0588235   0.2716942   0.0407591), wk =   0.0012212
        k(  709) = (   0.0588235   0.2716942   0.0489109), wk =   0.0012212
        k(  710) = (   0.0588235   0.2716942   0.0570627), wk =   0.0012212
        k(  711) = (   0.0588235   0.2716942   0.0652146), wk =   0.0012212
        k(  712) = (   0.0588235   0.2716942   0.0733664), wk =   0.0012212
        k(  713) = (   0.0588235   0.2716942   0.0815182), wk =   0.0012212
        k(  714) = (   0.0588235   0.2716942   0.0896700), wk =   0.0012212
        k(  715) = (   0.0588235   0.2716942   0.0978218), wk =   0.0012212
        k(  716) = (   0.0588235   0.2716942   0.1059737), wk =   0.0012212
        k(  717) = (   0.0588235   0.2716942   0.1141255), wk =   0.0012212
        k(  718) = (   0.0588235   0.2716942   0.1222773), wk =   0.0012212
        k(  719) = (   0.0588235   0.2716942   0.1304291), wk =   0.0012212
        k(  720) = (   0.0588235   0.2716942  -0.1385809), wk =   0.0006106
        k(  721) = (   0.0588235   0.3056560   0.0000000), wk =   0.0006106
        k(  722) = (   0.0588235   0.3056560   0.0081518), wk =   0.0012212
        k(  723) = (   0.0588235   0.3056560   0.0163036), wk =   0.0012212
        k(  724) = (   0.0588235   0.3056560   0.0244555), wk =   0.0012212
        k(  725) = (   0.0588235   0.3056560   0.0326073), wk =   0.0012212
        k(  726) = (   0.0588235   0.3056560   0.0407591), wk =   0.0012212
        k(  727) = (   0.0588235   0.3056560   0.0489109), wk =   0.0012212
        k(  728) = (   0.0588235   0.3056560   0.0570627), wk =   0.0012212
        k(  729) = (   0.0588235   0.3056560   0.0652146), wk =   0.0012212
        k(  730) = (   0.0588235   0.3056560   0.0733664), wk =   0.0012212
        k(  731) = (   0.0588235   0.3056560   0.0815182), wk =   0.0012212
        k(  732) = (   0.0588235   0.3056560   0.0896700), wk =   0.0012212
        k(  733) = (   0.0588235   0.3056560   0.0978218), wk =   0.0012212
        k(  734) = (   0.0588235   0.3056560   0.1059737), wk =   0.0012212
        k(  735) = (   0.0588235   0.3056560   0.1141255), wk =   0.0012212
        k(  736) = (   0.0588235   0.3056560   0.1222773), wk =   0.0012212
        k(  737) = (   0.0588235   0.3056560   0.1304291), wk =   0.0012212
        k(  738) = (   0.0588235   0.3056560  -0.1385809), wk =   0.0006106
        k(  739) = (   0.0588235   0.3396178   0.0000000), wk =   0.0006106
        k(  740) = (   0.0588235   0.3396178   0.0081518), wk =   0.0012212
        k(  741) = (   0.0588235   0.3396178   0.0163036), wk =   0.0012212
        k(  742) = (   0.0588235   0.3396178   0.0244555), wk =   0.0012212
        k(  743) = (   0.0588235   0.3396178   0.0326073), wk =   0.0012212
        k(  744) = (   0.0588235   0.3396178   0.0407591), wk =   0.0012212
        k(  745) = (   0.0588235   0.3396178   0.0489109), wk =   0.0012212
        k(  746) = (   0.0588235   0.3396178   0.0570627), wk =   0.0012212
        k(  747) = (   0.0588235   0.3396178   0.0652146), wk =   0.0012212
        k(  748) = (   0.0588235   0.3396178   0.0733664), wk =   0.0012212
        k(  749) = (   0.0588235   0.3396178   0.0815182), wk =   0.0012212
        k(  750) = (   0.0588235   0.3396178   0.0896700), wk =   0.0012212
        k(  751) = (   0.0588235   0.3396178   0.0978218), wk =   0.0012212
        k(  752) = (   0.0588235   0.3396178   0.1059737), wk =   0.0012212
        k(  753) = (   0.0588235   0.3396178   0.1141255), wk =   0.0012212
        k(  754) = (   0.0588235   0.3396178   0.1222773), wk =   0.0012212
        k(  755) = (   0.0588235   0.3396178   0.1304291), wk =   0.0012212
        k(  756) = (   0.0588235   0.3396178  -0.1385809), wk =   0.0006106
        k(  757) = (   0.0588235   0.3735796   0.0000000), wk =   0.0006106
        k(  758) = (   0.0588235   0.3735796   0.0081518), wk =   0.0012212
        k(  759) = (   0.0588235   0.3735796   0.0163036), wk =   0.0012212
        k(  760) = (   0.0588235   0.3735796   0.0244555), wk =   0.0012212
        k(  761) = (   0.0588235   0.3735796   0.0326073), wk =   0.0012212
        k(  762) = (   0.0588235   0.3735796   0.0407591), wk =   0.0012212
        k(  763) = (   0.0588235   0.3735796   0.0489109), wk =   0.0012212
        k(  764) = (   0.0588235   0.3735796   0.0570627), wk =   0.0012212
        k(  765) = (   0.0588235   0.3735796   0.0652146), wk =   0.0012212
        k(  766) = (   0.0588235   0.3735796   0.0733664), wk =   0.0012212
        k(  767) = (   0.0588235   0.3735796   0.0815182), wk =   0.0012212
        k(  768) = (   0.0588235   0.3735796   0.0896700), wk =   0.0012212
        k(  769) = (   0.0588235   0.3735796   0.0978218), wk =   0.0012212
        k(  770) = (   0.0588235   0.3735796   0.1059737), wk =   0.0012212
        k(  771) = (   0.0588235   0.3735796   0.1141255), wk =   0.0012212
        k(  772) = (   0.0588235   0.3735796   0.1222773), wk =   0.0012212
        k(  773) = (   0.0588235   0.3735796   0.1304291), wk =   0.0012212
        k(  774) = (   0.0588235   0.3735796  -0.1385809), wk =   0.0006106
        k(  775) = (   0.0588235   0.4075414   0.0000000), wk =   0.0006106
        k(  776) = (   0.0588235   0.4075414   0.0081518), wk =   0.0012212
        k(  777) = (   0.0588235   0.4075414   0.0163036), wk =   0.0012212
        k(  778) = (   0.0588235   0.4075414   0.0244555), wk =   0.0012212
        k(  779) = (   0.0588235   0.4075414   0.0326073), wk =   0.0012212
        k(  780) = (   0.0588235   0.4075414   0.0407591), wk =   0.0012212
        k(  781) = (   0.0588235   0.4075414   0.0489109), wk =   0.0012212
        k(  782) = (   0.0588235   0.4075414   0.0570627), wk =   0.0012212
        k(  783) = (   0.0588235   0.4075414   0.0652146), wk =   0.0012212
        k(  784) = (   0.0588235   0.4075414   0.0733664), wk =   0.0012212
        k(  785) = (   0.0588235   0.4075414   0.0815182), wk =   0.0012212
        k(  786) = (   0.0588235   0.4075414   0.0896700), wk =   0.0012212
        k(  787) = (   0.0588235   0.4075414   0.0978218), wk =   0.0012212
        k(  788) = (   0.0588235   0.4075414   0.1059737), wk =   0.0012212
        k(  789) = (   0.0588235   0.4075414   0.1141255), wk =   0.0012212
        k(  790) = (   0.0588235   0.4075414   0.1222773), wk =   0.0012212
        k(  791) = (   0.0588235   0.4075414   0.1304291), wk =   0.0012212
        k(  792) = (   0.0588235   0.4075414  -0.1385809), wk =   0.0006106
        k(  793) = (   0.0588235   0.4415031   0.0000000), wk =   0.0006106
        k(  794) = (   0.0588235   0.4415031   0.0081518), wk =   0.0012212
        k(  795) = (   0.0588235   0.4415031   0.0163036), wk =   0.0012212
        k(  796) = (   0.0588235   0.4415031   0.0244555), wk =   0.0012212
[...]
   -18.0699 -18.0698  -5.8912  -5.8837  -5.3212  -5.3118   5.6117   5.6151
     6.7495   6.7530   7.1196   7.1540   7.7159   7.7415   8.3280   8.5529
     8.6448   8.8696  12.9123  12.9287  15.7256  15.7448  17.7562  17.7615
    17.9590  17.9617

     occupation numbers 
     1.0000   1.0000   1.0000   1.0000   1.0000   1.0000   1.0000   1.0000
     1.0000   1.0000   1.0000   1.0000   1.0000   1.0000   1.0000   1.0000
     1.0000   1.0000   1.0000   1.0000   1.0000   1.0000   1.0000   1.0000
     1.0000   1.0000   1.0000   1.0000  -0.0000  -0.0000  -0.0000  -0.0000
    -0.0000  -0.0000

          k = 0.2941 0.5774 0.1141 (  3976 PWs)   bands (ev):

   -41.8103 -41.8103 -31.3323 -31.3322 -18.7748 -18.7747 -18.4196 -18.4195
   -18.0699 -18.0698  -5.8903  -5.8847  -5.3200  -5.3130   5.6121   5.6147
     6.7616   6.7647   7.1034   7.1291   7.7178   7.7366   8.3713   8.5790
     8.6285   8.8364  12.9143  12.9268  15.7282  15.7428  17.7558  17.7597
    17.9608  17.9620

     occupation numbers 
     1.0000   1.0000   1.0000   1.0000   1.0000   1.0000   1.0000   1.0000
     1.0000   1.0000   1.0000   1.0000   1.0000   1.0000   1.0000   1.0000
     1.0000   1.0000   1.0000   1.0000   1.0000   1.0000   1.0000   1.0000
     1.0000   1.0000   1.0000   1.0000  -0.0000  -0.0000  -0.0000  -0.0000
    -0.0000  -0.0000

          k = 0.2941 0.5774 0.1223 (  3970 PWs)   bands (ev):

   -41.8103 -41.8103 -31.3322 -31.3322 -18.7748 -18.7748 -18.4196 -18.4195
   -18.0699 -18.0698  -5.8894  -5.8856  -5.3189  -5.3141   5.6125   5.6142
     6.7715   6.7741   7.0918   7.1091   7.7201   7.7324   8.4134   8.5627
     8.6519   8.8015  12.9164  12.9247  15.7309  15.7407  17.7556  17.7582
    17.9619  17.9626

     occupation numbers 
     1.0000   1.0000   1.0000   1.0000   1.0000   1.0000   1.0000   1.0000
     1.0000   1.0000   1.0000   1.0000   1.0000   1.0000   1.0000   1.0000
     1.0000   1.0000   1.0000   1.0000   1.0000   1.0000   1.0000   1.0000
     1.0000   1.0000   1.0000   1.0000  -0.0000  -0.0000  -0.0000  -0.0000
    -0.0000  -0.0000

          k = 0.2941 0.5774 0.1304 (  3972 PWs)   bands (ev):

   -41.8103 -41.8103 -31.3322 -31.3322 -18.7748 -18.7748 -18.4196 -18.4195
   -18.0699 -18.0698  -5.8885  -5.8866  -5.3177  -5.3153   5.6129   5.6138
     6.7784   6.7798   7.0860   7.0947   7.7226   7.7287   8.4540   8.5298
     8.6892   8.7651  12.9185  12.9227  15.7335  15.7384  17.7557  17.7570
    17.9625  17.9627

     occupation numbers 
     1.0000   1.0000   1.0000   1.0000   1.0000   1.0000   1.0000   1.0000
     1.0000   1.0000   1.0000   1.0000   1.0000   1.0000   1.0000   1.0000
     1.0000   1.0000   1.0000   1.0000   1.0000   1.0000   1.0000   1.0000
     1.0000   1.0000   1.0000   1.0000  -0.0000  -0.0000  -0.0000  -0.0000
    -0.0000  -0.0000

          k = 0.2941 0.5774-0.1386 (  3970 PWs)   bands (ev):

   -41.8103 -41.8103 -31.3322 -31.3322 -18.7748 -18.7748 -18.4196 -18.4195
   -18.0699 -18.0698  -5.8875  -5.8875  -5.3165  -5.3165   5.6134   5.6134
     6.7813   6.7814   7.0869   7.0869   7.7255   7.7255   8.4930   8.4930
     8.7275   8.7275  12.9206  12.9206  15.7360  15.7360  17.7562  17.7562
    17.9627  17.9627

     occupation numbers 
     1.0000   1.0000   1.0000   1.0000   1.0000   1.0000   1.0000   1.0000
     1.0000   1.0000   1.0000   1.0000   1.0000   1.0000   1.0000   1.0000
     1.0000   1.0000   1.0000   1.0000   1.0000   1.0000   1.0000   1.0000
     1.0000   1.0000   1.0000   1.0000  -0.0000  -0.0000  -0.0000  -0.0000
    -0.0000  -0.0000

          k = 0.3235 0.5604 0.0000 (  3979 PWs)   bands (ev):

   -41.8095 -41.8095 -31.3321 -31.3321 -18.7580 -18.7580 -18.4444 -18.4440
   -18.0682 -18.0680  -5.8936  -5.8831  -5.3177  -5.3044   5.5904   5.5981
     6.6406   6.6869   7.4900   7.5797   7.6487   7.7440   7.8609   8.0261
     8.9172   9.0409  12.9340  12.9673  15.6673  15.7036  17.8259  17.8582
    17.9537  17.9615

     occupation numbers 
     1.0000   1.0000   1.0000   1.0000   1.0000   1.0000   1.0000   1.0000
     1.0000   1.0000   1.0000   1.0000   1.0000   1.0000   1.0000   1.0000
     1.0000   1.0000   1.0000   1.0000   1.0000   1.0000   1.0000   1.0000
     1.0000   1.0000   1.0000   1.0000  -0.0000  -0.0000  -0.0000  -0.0000
    -0.0000  -0.0000

          k = 0.3235 0.5604 0.0082 (  3978 PWs)   bands (ev):

   -41.8095 -41.8095 -31.3321 -31.3321 -18.7580 -18.7580 -18.4444 -18.4440
   -18.0682 -18.0680  -5.8935  -5.8831  -5.3176  -5.3044   5.5904   5.5981
     6.6415   6.6877   7.4861   7.5744   7.6485   7.7371   7.8722   8.0321
     8.9158   9.0395  12.9341  12.9672  15.6675  15.7035  17.8258  17.8579
    17.9538  17.9614

     occupation numbers 
     1.0000   1.0000   1.0000   1.0000   1.0000   1.0000   1.0000   1.0000
     1.0000   1.0000   1.0000   1.0000   1.0000   1.0000   1.0000   1.0000
     1.0000   1.0000   1.0000   1.0000   1.0000   1.0000   1.0000   1.0000
     1.0000   1.0000   1.0000   1.0000  -0.0000  -0.0000  -0.0000  -0.0000
    -0.0000  -0.0000

          k = 0.3235 0.5604 0.0163 (  3976 PWs)   bands (ev):

   -41.8095 -41.8095 -31.3321 -31.3321 -18.7580 -18.7580 -18.4444 -18.4440
   -18.0682 -18.0680  -5.8935  -5.8832  -5.3175  -5.3045   5.5904   5.5980
     6.6441   6.6903   7.4747   7.5592   7.6482   7.7223   7.8999   8.0491
     8.9117   9.0352  12.9343  12.9670  15.6679  15.7035  17.8254  17.8570
    17.9531  17.9607

     occupation numbers 
     1.0000   1.0000   1.0000   1.0000   1.0000   1.0000   1.0000   1.0000
     1.0000   1.0000   1.0000   1.0000   1.0000   1.0000   1.0000   1.0000
     1.0000   1.0000   1.0000   1.0000   1.0000   1.0000   1.0000   1.0000
     1.0000   1.0000   1.0000   1.0000  -0.0000  -0.0000  -0.0000  -0.0000
    -0.0000  -0.0000

          k = 0.3235 0.5604 0.0245 (  3974 PWs)   bands (ev):

   -41.8095 -41.8094 -31.3321 -31.3321 -18.7580 -18.7580 -18.4444 -18.4440
   -18.0682 -18.0680  -5.8934  -5.8833  -5.3174  -5.3046   5.5905   5.5980
     6.6484   6.6946   7.4563   7.5360   7.6479   7.7071   7.9361   8.0751
     8.9049   9.0282  12.9346  12.9666  15.6686  15.7034  17.8248  17.8553
    17.9132  17.9536

     occupation numbers 
     1.0000   1.0000   1.0000   1.0000   1.0000   1.0000   1.0000   1.0000
     1.0000   1.0000   1.0000   1.0000   1.0000   1.0000   1.0000   1.0000
     1.0000   1.0000   1.0000   1.0000   1.0000   1.0000   1.0000   1.0000
     1.0000   1.0000   1.0000   1.0000  -0.0000  -0.0000  -0.0000  -0.0000
    -0.0000  -0.0000

          k = 0.3235 0.5604 0.0326 (  3978 PWs)   bands (ev):

   -41.8095 -41.8095 -31.3321 -31.3321 -18.7580 -18.7580 -18.4444 -18.4440
   -18.0682 -18.0680  -5.8932  -5.8835  -5.3172  -5.3048   5.5906   5.5978
     6.6544   6.7004   7.4320   7.5070   7.6478   7.6943   7.9767   8.1078
     8.8953   9.0184  12.9351  12.9661  15.6695  15.7033  17.8240  17.8531
    17.9141  17.9533

     occupation numbers 
     1.0000   1.0000   1.0000   1.0000   1.0000   1.0000   1.0000   1.0000
     1.0000   1.0000   1.0000   1.0000   1.0000   1.0000   1.0000   1.0000
     1.0000   1.0000   1.0000   1.0000   1.0000   1.0000   1.0000   1.0000
     1.0000   1.0000   1.0000   1.0000  -0.0000  -0.0000  -0.0000  -0.0000
    -0.0000  -0.0000

          k = 0.3235 0.5604 0.0408 (  3981 PWs)   bands (ev):

   -41.8095 -41.8095 -31.3321 -31.3321 -18.7580 -18.7580 -18.4444 -18.4440
   -18.0681 -18.0680  -5.8930  -5.8837  -5.3169  -5.3050   5.5908   5.5977
     6.6621   6.7079   7.4034   7.4741   7.6478   7.6844   8.0199   8.1453
     8.8831   9.0059  12.9357  12.9655  15.6706  15.7031  17.8231  17.8506
    17.9154  17.9529

     occupation numbers 
     1.0000   1.0000   1.0000   1.0000   1.0000   1.0000   1.0000   1.0000
     1.0000   1.0000   1.0000   1.0000   1.0000   1.0000   1.0000   1.0000
     1.0000   1.0000   1.0000   1.0000   1.0000   1.0000   1.0000   1.0000
     1.0000   1.0000   1.0000   1.0000  -0.0000  -0.0000  -0.0000  -0.0000
    -0.0000  -0.0000

          k = 0.3235 0.5604 0.0489 (  3987 PWs)   bands (ev):

   -41.8095 -41.8095 -31.3321 -31.3321 -18.7580 -18.7580 -18.4444 -18.4440
   -18.0681 -18.0680  -5.8928  -5.8839  -5.3166  -5.3053   5.5909   5.5975
     6.6714   6.7169   7.3720   7.4390   7.6478   7.6769   8.0646   8.1859
     8.8682   8.9906  12.9364  12.9647  15.6720  15.7028  17.8220  17.8476
    17.9169  17.9523

     occupation numbers 
     1.0000   1.0000   1.0000   1.0000   1.0000   1.0000   1.0000   1.0000
     1.0000   1.0000   1.0000   1.0000   1.0000   1.0000   1.0000   1.0000
     1.0000   1.0000   1.0000   1.0000   1.0000   1.0000   1.0000   1.0000
     1.0000   1.0000   1.0000   1.0000  -0.0000  -0.0000  -0.0000  -0.0000
    -0.0000  -0.0000

          k = 0.3235 0.5604 0.0571 (  3985 PWs)   bands (ev):

   -41.8095 -41.8095 -31.3321 -31.3321 -18.7580 -18.7580 -18.4444 -18.4440
   -18.0681 -18.0680  -5.8926  -5.8842  -5.3162  -5.3057   5.5911   5.5973
     6.6821   6.7273   7.3389   7.4027   7.6480   7.6714   8.1103   8.2288
     8.8508   8.9728  12.9373  12.9638  15.6735  15.7025  17.8208  17.8444
    17.9186  17.9517

     occupation numbers 
     1.0000   1.0000   1.0000   1.0000   1.0000   1.0000   1.0000   1.0000
     1.0000   1.0000   1.0000   1.0000   1.0000   1.0000   1.0000   1.0000
     1.0000   1.0000   1.0000   1.0000   1.0000   1.0000   1.0000   1.0000
     1.0000   1.0000   1.0000   1.0000  -0.0000  -0.0000  -0.0000  -0.0000
    -0.0000  -0.0000

          k = 0.3235 0.5604 0.0652 (  3983 PWs)   bands (ev):

   -41.8095 -41.8095 -31.3321 -31.3321 -18.7580 -18.7580 -18.4443 -18.4441
   -18.0681 -18.0680  -5.8923  -5.8845  -5.3158  -5.3060   5.5914   5.5970
     6.6943   6.7389   7.3053   7.3661   7.6483   7.6672   8.1564   8.2730
     8.8308   8.9524  12.9383  12.9628  15.6752  15.7021  17.8197  17.8411
    17.9205  17.9510

     occupation numbers 
     1.0000   1.0000   1.0000   1.0000   1.0000   1.0000   1.0000   1.0000
     1.0000   1.0000   1.0000   1.0000   1.0000   1.0000   1.0000   1.0000
     1.0000   1.0000   1.0000   1.0000   1.0000   1.0000   1.0000   1.0000
     1.0000   1.0000   1.0000   1.0000  -0.0000  -0.0000  -0.0000  -0.0000
    -0.0000  -0.0000

          k = 0.3235 0.5604 0.0734 (  3980 PWs)   bands (ev):

   -41.8095 -41.8095 -31.3322 -31.3321 -18.7580 -18.7580 -18.4443 -18.4441
   -18.0681 -18.0680  -5.8919  -5.8849  -5.3154  -5.3064   5.5916   5.5968
     6.7078   6.7515   7.2720   7.3298   7.6486   7.6640   8.2026   8.3180
     8.8085   8.9295  12.9393  12.9617  15.6771  15.7016  17.8186  17.8377
    17.9226  17.9501

     occupation numbers 
     1.0000   1.0000   1.0000   1.0000   1.0000   1.0000   1.0000   1.0000
     1.0000   1.0000   1.0000   1.0000   1.0000   1.0000   1.0000   1.0000
     1.0000   1.0000   1.0000   1.0000   1.0000   1.0000   1.0000   1.0000
     1.0000   1.0000   1.0000   1.0000  -0.0000  -0.0000  -0.0000  -0.0000
    -0.0000  -0.0000

          k = 0.3235 0.5604 0.0815 (  3976 PWs)   bands (ev):

   -41.8095 -41.8095 -31.3321 -31.3321 -18.7580 -18.7580 -18.4443 -18.4441
   -18.0681 -18.0680  -5.8916  -5.8853  -5.3149  -5.3069   5.5919   5.5965
     6.7224   6.7648   7.2399   7.2944   7.6489   7.6615   8.2487   8.3634
     8.7838   8.9042  12.9405  12.9605  15.6790  15.7009  17.8176  17.8344
    17.9248  17.9491

     occupation numbers 
     1.0000   1.0000   1.0000   1.0000   1.0000   1.0000   1.0000   1.0000
     1.0000   1.0000   1.0000   1.0000   1.0000   1.0000   1.0000   1.0000
     1.0000   1.0000   1.0000   1.0000   1.0000   1.0000   1.0000   1.0000
     1.0000   1.0000   1.0000   1.0000  -0.0000  -0.0000  -0.0000  -0.0000
    -0.0000  -0.0000

          k = 0.3235 0.5604 0.0897 (  3974 PWs)   bands (ev):

   -41.8095 -41.8094 -31.3321 -31.3321 -18.7580 -18.7580 -18.4443 -18.4441
   -18.0681 -18.0680  -5.8912  -5.8857  -5.3144  -5.3074   5.5922   5.5963
     6.7379   6.7783   7.2096   7.2604   7.6493   7.6594   8.2945   8.4088
     8.7568   8.8766  12.9417  12.9592  15.6810  15.7002  17.8167  17.8312
    17.9269  17.9481

     occupation numbers 
     1.0000   1.0000   1.0000   1.0000   1.0000   1.0000   1.0000   1.0000
     1.0000   1.0000   1.0000   1.0000   1.0000   1.0000   1.0000   1.0000
     1.0000   1.0000   1.0000   1.0000   1.0000   1.0000   1.0000   1.0000
     1.0000   1.0000   1.0000   1.0000  -0.0000  -0.0000  -0.0000  -0.0000
    -0.0000  -0.0000

          k = 0.3235 0.5604 0.0978 (  3979 PWs)   bands (ev):

   -41.8095 -41.8095 -31.3322 -31.3321 -18.7580 -18.7580 -18.4443 -18.4441
   -18.0681 -18.0680  -5.8908  -5.8861  -5.3138  -5.3079   5.5925   5.5959
     6.7539   6.7915   7.1821   7.2283   7.6497   7.6578   8.3396   8.4538
     8.7277   8.8468  12.9431  12.9578  15.6830  15.6992  17.8161  17.8281
    17.9291  17.9469

     occupation numbers 
     1.0000   1.0000   1.0000   1.0000   1.0000   1.0000   1.0000   1.0000
     1.0000   1.0000   1.0000   1.0000   1.0000   1.0000   1.0000   1.0000
     1.0000   1.0000   1.0000   1.0000   1.0000   1.0000   1.0000   1.0000
     1.0000   1.0000   1.0000   1.0000  -0.0000  -0.0000  -0.0000  -0.0000
    -0.0000  -0.0000

          k = 0.3235 0.5604 0.1060 (  3977 PWs)   bands (ev):

   -41.8095 -41.8095 -31.3322 -31.3321 -18.7580 -18.7580 -18.4443 -18.4441
   -18.0681 -18.0681  -5.8904  -5.8866  -5.3133  -5.3085   5.5928   5.5956
     6.7699   6.8035   7.1583   7.1988   7.6501   7.6564   8.3841   8.4982
     8.6966   8.8149  12.9444  12.9564  15.6850  15.6982  17.8157  17.8254
    17.9313  17.9456

     occupation numbers 
     1.0000   1.0000   1.0000   1.0000   1.0000   1.0000   1.0000   1.0000
     1.0000   1.0000   1.0000   1.0000   1.0000   1.0000   1.0000   1.0000
     1.0000   1.0000   1.0000   1.0000   1.0000   1.0000   1.0000   1.0000
     1.0000   1.0000   1.0000   1.0000  -0.0000  -0.0000  -0.0000  -0.0000
    -0.0000  -0.0000

          k = 0.3235 0.5604 0.1141 (  3973 PWs)   bands (ev):

   -41.8095 -41.8094 -31.3321 -31.3321 -18.7580 -18.7580 -18.4443 -18.4441
   -18.0681 -18.0681  -5.8899  -5.8870  -5.3127  -5.3090   5.5932   5.5952
     6.7853   6.8133   7.1395   7.1725   7.6507   7.6552   8.4276   8.5416
     8.6638   8.7811  12.9459  12.9550  15.6870  15.6970  17.8156  17.8229
    17.9334  17.9442

     occupation numbers 
     1.0000   1.0000   1.0000   1.0000   1.0000   1.0000   1.0000   1.0000
     1.0000   1.0000   1.0000   1.0000   1.0000   1.0000   1.0000   1.0000
     1.0000   1.0000   1.0000   1.0000   1.0000   1.0000   1.0000   1.0000
     1.0000   1.0000   1.0000   1.0000  -0.0000  -0.0000  -0.0000  -0.0000
    -0.0000  -0.0000

          k = 0.3235 0.5604 0.1223 (  3965 PWs)   bands (ev):

   -41.8095 -41.8094 -31.3321 -31.3321 -18.7580 -18.7580 -18.4442 -18.4442
   -18.0681 -18.0681  -5.8894  -5.8875  -5.3121  -5.3096   5.5935   5.5949
     6.7994   6.8197   7.1268   7.1505   7.6512   7.6542   8.4701   8.5823
     8.6310   8.7455  12.9474  12.9535  15.6890  15.6957  17.8159  17.8207
    17.9355  17.9427

     occupation numbers 
     1.0000   1.0000   1.0000   1.0000   1.0000   1.0000   1.0000   1.0000
     1.0000   1.0000   1.0000   1.0000   1.0000   1.0000   1.0000   1.0000
     1.0000   1.0000   1.0000   1.0000   1.0000   1.0000   1.0000   1.0000
     1.0000   1.0000   1.0000   1.0000  -0.0000  -0.0000  -0.0000  -0.0000
    -0.0000  -0.0000

          k = 0.3235 0.5604 0.1304 (  3960 PWs)   bands (ev):

   -41.8095 -41.8094 -31.3321 -31.3321 -18.7580 -18.7580 -18.4442 -18.4442
   -18.0681 -18.0681  -5.8890  -5.8880  -5.3114  -5.3102   5.5939   5.5946
     6.8108   6.8216   7.1214   7.1339   7.6519   7.6533   8.5112   8.5865
     8.6317   8.7082  12.9489  12.9520  15.6908  15.6942  17.8165  17.8190
    17.9374  17.9411

     occupation numbers 
     1.0000   1.0000   1.0000   1.0000   1.0000   1.0000   1.0000   1.0000
     1.0000   1.0000   1.0000   1.0000   1.0000   1.0000   1.0000   1.0000
     1.0000   1.0000   1.0000   1.0000   1.0000   1.0000   1.0000   1.0000
     1.0000   1.0000   1.0000   1.0000  -0.0000  -0.0000  -0.0000  -0.0000
    -0.0000  -0.0000

          k = 0.3235 0.5604-0.1386 (  3960 PWs)   bands (ev):

   -41.8095 -41.8094 -31.3321 -31.3321 -18.7580 -18.7580 -18.4442 -18.4442
   -18.0681 -18.0681  -5.8885  -5.8885  -5.3108  -5.3108   5.5942   5.5943
     6.8186   6.8186   7.1239   7.1239   7.6526   7.6526   8.5506   8.5506
     8.6697   8.6697  12.9504  12.9504  15.6925  15.6926  17.8175  17.8176
    17.9392  17.9393

     occupation numbers 
     1.0000   1.0000   1.0000   1.0000   1.0000   1.0000   1.0000   1.0000
     1.0000   1.0000   1.0000   1.0000   1.0000   1.0000   1.0000   1.0000
     1.0000   1.0000   1.0000   1.0000   1.0000   1.0000   1.0000   1.0000
     1.0000   1.0000   1.0000   1.0000  -0.0000  -0.0000  -0.0000  -0.0000
    -0.0000  -0.0000

     the Fermi energy is    14.7105 ev

!    total energy              =    -420.28090926 Ry
     Harris-Foulkes estimate   =    -420.28090926 Ry
     estimated scf accuracy    <          2.0E-10 Ry

     The total energy is the sum of the following terms:

     one-electron contribution =    -106.49662540 Ry
     hartree contribution      =      84.39318295 Ry
     xc contribution           =     -99.96436529 Ry
     ewald contribution        =    -298.21310152 Ry
     smearing contrib. (-TS)   =       0.00000000 Ry

     convergence has been achieved in  10 iterations

     Writing output data file LNO2.save
 
     init_run     :     37.31s CPU     41.51s WALL (       1 calls)
     electrons    :   1361.51s CPU   1379.47s WALL (       1 calls)

     Called by init_run:
     wfcinit      :     36.88s CPU     40.44s WALL (       1 calls)
     potinit      :      0.07s CPU      0.47s WALL (       1 calls)

     Called by electrons:
     c_bands      :   1227.44s CPU   1243.82s WALL (      10 calls)
     sum_band     :    133.49s CPU    134.79s WALL (      10 calls)
     v_of_rho     :      0.01s CPU      0.01s WALL (      11 calls)
     v_h          :      0.01s CPU      0.01s WALL (      11 calls)
     v_xc         :      0.01s CPU      0.01s WALL (      11 calls)
     newd         :      0.50s CPU      0.50s WALL (      11 calls)
     mix_rho      :      0.01s CPU      0.02s WALL (      10 calls)

     Called by c_bands:
     init_us_2    :      8.10s CPU      8.62s WALL (   43092 calls)
     cegterg      :   1187.10s CPU   1195.17s WALL (   20520 calls)

     Called by sum_band:
     sum_band:bec :      2.05s CPU      1.93s WALL (   20520 calls)
     addusdens    :      0.29s CPU      0.29s WALL (      10 calls)

     Called by *egterg:
     h_psi        :    724.57s CPU    732.11s WALL (   91835 calls)
     s_psi        :     26.98s CPU     26.69s WALL (   91835 calls)
     g_psi        :      2.60s CPU      2.72s WALL (   69263 calls)
     cdiaghg      :    296.82s CPU    297.50s WALL (   89783 calls)
     cegterg:over :     63.05s CPU     63.36s WALL (   69263 calls)
     cegterg:upda :     30.06s CPU     29.86s WALL (   69263 calls)
     cegterg:last :     12.15s CPU     12.32s WALL (   20863 calls)

     Called by h_psi:
     h_psi:vloc   :    637.66s CPU    644.55s WALL (   91835 calls)
     h_psi:vnl    :     83.25s CPU     83.76s WALL (   91835 calls)
     add_vuspsi   :     28.66s CPU     29.71s WALL (   91835 calls)

     General routines
     calbec       :     66.90s CPU     66.10s WALL (  112355 calls)
     fft          :      0.06s CPU      0.07s WALL (      95 calls)
     ffts         :      0.01s CPU      0.01s WALL (      21 calls)
     fftw         :    698.84s CPU    704.67s WALL ( 4646004 calls)
     interpolate  :      0.02s CPU      0.02s WALL (      21 calls)
     davcio       :      0.01s CPU      0.21s WALL (    2052 calls)
 
     Parallel routines
     fft_scatter  :    187.85s CPU    187.09s WALL ( 4646120 calls)
 
     PWSCF        : 23m23.79s CPU    33m50.08s WALL

 
   This run was terminated on:  19:20:34  25Sep2015            

=------------------------------------------------------------------------------=
   JOB DONE.
=------------------------------------------------------------------------------=
