
     Program PWSCF v.5.1.2 starts on 19Sep2015 at 21:43:37 

     This program is part of the open-source Quantum ESPRESSO suite
     for quantum simulation of materials; please cite
         "P. Giannozzi et al., J. Phys.:Condens. Matter 21 395502 (2009);
          URL http://www.quantum-espresso.org", 
     in publications or presentations arising from this work. More details at
     http://www.quantum-espresso.org/quote

     Parallel version (MPI), running on    16 processors
     R & G space division:  proc/nbgrp/npool/nimage =      16
     Waiting for input...
     Reading input from standard input

     Current dimensions of program PWSCF are:
     Max number of different atomic species (ntypx) = 10
     Max number of k-points (npk) =  40000
     Max angular momentum in pseudopotentials (lmaxx) =  3
               file Nb.pz-spn-rrkjus_psl.0.3.0.UPF: wavefunction(s)  4S renormalized

     Subspace diagonalization in iterative solution of the eigenvalue problem:
     a serial algorithm will be used

 
     Parallelization info
     --------------------
     sticks:   dense  smooth     PW     G-vecs:    dense   smooth      PW
     Min          45      31      9                 3499     1979     325
     Max          46      32     10                 3510     2000     336
     Sum         721     499    151                56025    31831    5303
 


     bravais-lattice index     =            4
     lattice parameter (alat)  =       5.4540  a.u.
     unit-cell volume          =     506.9237 (a.u.)^3
     number of atoms/cell      =            8
     number of atomic types    =            3
     number of electrons       =        56.00
     number of Kohn-Sham states=           34
     kinetic-energy cutoff     =      60.0000  Ry
     charge density cutoff     =     350.0000  Ry
     convergence threshold     =      1.0E-08
     mixing beta               =       0.7000
     number of iterations used =            8  plain     mixing
     Exchange-correlation      = LDA ( 1  1  0  0 0 0)

     celldm(1)=   5.454000  celldm(2)=   0.000000  celldm(3)=   3.608000
     celldm(4)=   0.000000  celldm(5)=   0.000000  celldm(6)=   0.000000

     crystal axes: (cart. coord. in units of alat)
               a(1) = (   1.000000   0.000000   0.000000 )  
               a(2) = (  -0.500000   0.866025   0.000000 )  
               a(3) = (   0.000000   0.000000   3.608000 )  

     reciprocal axes: (cart. coord. in units 2 pi/alat)
               b(1) = (  1.000000  0.577350  0.000000 )  
               b(2) = (  0.000000  1.154701  0.000000 )  
               b(3) = (  0.000000  0.000000  0.277162 )  


     PseudoPot. # 1 for Li read from file:
     /home/victor/CM135/PsP/QE/pz.0.3.1/PSEUDOPOTENTIALS/Li.pz-s-rrkjus_psl.0.2.1.UPF
     MD5 check sum: 3ba9f33595e729dd0656c2357f75fe8a
     Pseudo is Ultrasoft, Zval =  3.0
     Generated using "atomic" code by A. Dal Corso  v.5.0.99 svn rev. 10869
     Using radial grid of 1017 points,  4 beta functions with: 
                l(1) =   0
                l(2) =   0
                l(3) =   1
                l(4) =   1
     Q(r) pseudized with 0 coefficients 


     PseudoPot. # 2 for Nb read from file:
     /home/victor/CM135/PsP/QE/pz.0.3.1/PSEUDOPOTENTIALS/Nb.pz-spn-rrkjus_psl.0.3.0.UPF
     MD5 check sum: b1cea281d3b3efdf0ab23b4a76cdfe69
     Pseudo is Ultrasoft + core correction, Zval = 13.0
     Generated using "atomic" code by A. Dal Corso  v.5.0.99 svn rev. 10869
     Using radial grid of 1227 points,  6 beta functions with: 
                l(1) =   0
                l(2) =   0
                l(3) =   1
                l(4) =   1
                l(5) =   2
                l(6) =   2
     Q(r) pseudized with 0 coefficients 


     PseudoPot. # 3 for  O read from file:
     /home/victor/CM135/PsP/QE/pz.0.3.1/PSEUDOPOTENTIALS/O.pz-n-rrkjus_psl.0.1.UPF
     MD5 check sum: bc90013de5d4ea31c1c0ea310a8edfcd
     Pseudo is Ultrasoft + core correction, Zval =  6.0
     Generated using "atomic" code by A. Dal Corso  v.5.0.99 svn rev. 10869
     Using radial grid of 1095 points,  4 beta functions with: 
                l(1) =   0
                l(2) =   0
                l(3) =   1
                l(4) =   1
     Q(r) pseudized with 0 coefficients 


     atomic species   valence    mass     pseudopotential
        Li             3.00     6.94100     Li( 1.00)
        Nb            13.00    92.90638     Nb( 1.00)
        O              6.00    15.99940      O( 1.00)

     24 Sym. Ops., with inversion, found (12 have fractional translation)


                                    s                        frac. trans.

      isym =  1     identity                                     

 cryst.   s( 1) = (     1          0          0      )
                  (     0          1          0      )
                  (     0          0          1      )

 cart.    s( 1) = (  1.0000000  0.0000000  0.0000000 )
                  (  0.0000000  1.0000000  0.0000000 )
                  (  0.0000000  0.0000000  1.0000000 )


      isym =  2     180 deg rotation - cart. axis [0,0,1]        

 cryst.   s( 2) = (    -1          0          0      )    f =(  0.0000000 )
                  (     0         -1          0      )       (  0.0000000 )
                  (     0          0          1      )       (  0.5000000 )

 cart.    s( 2) = ( -1.0000000  0.0000000  0.0000000 )    f =(  0.0000000 )
                  (  0.0000000 -1.0000000  0.0000000 )       (  0.0000000 )
                  (  0.0000000  0.0000000  1.0000000 )       (  1.8040000 )


      isym =  3     180 deg rotation - cart. axis [0,1,0]        

 cryst.   s( 3) = (    -1          0          0      )    f =(  0.0000000 )
                  (     1          1          0      )       (  0.0000000 )
                  (     0          0         -1      )       ( -0.5000000 )

 cart.    s( 3) = ( -1.0000000  0.0000000  0.0000000 )    f =(  0.0000000 )
                  (  0.0000000  1.0000000  0.0000000 )       (  0.0000000 )
                  (  0.0000000  0.0000000 -1.0000000 )       ( -1.8040000 )


      isym =  4     180 deg rotation - cart. axis [1,0,0]        

 cryst.   s( 4) = (     1          0          0      )
                  (    -1         -1          0      )
                  (     0          0         -1      )

 cart.    s( 4) = (  1.0000000  0.0000000  0.0000000 )
                  (  0.0000000 -1.0000000  0.0000000 )
                  (  0.0000000  0.0000000 -1.0000000 )


      isym =  5      60 deg rotation - cryst. axis [0,0,1]       

 cryst.   s( 5) = (     1          1          0      )    f =(  0.0000000 )
                  (    -1          0          0      )       (  0.0000000 )
                  (     0          0          1      )       (  0.5000000 )

 cart.    s( 5) = (  0.5000000 -0.8660254  0.0000000 )    f =(  0.0000000 )
                  (  0.8660254  0.5000000  0.0000000 )       (  0.0000000 )
                  (  0.0000000  0.0000000  1.0000000 )       (  1.8040000 )


      isym =  6      60 deg rotation - cryst. axis [0,0,-1]      

 cryst.   s( 6) = (     0         -1          0      )    f =(  0.0000000 )
                  (     1          1          0      )       (  0.0000000 )
                  (     0          0          1      )       (  0.5000000 )

 cart.    s( 6) = (  0.5000000  0.8660254  0.0000000 )    f =(  0.0000000 )
                  ( -0.8660254  0.5000000  0.0000000 )       (  0.0000000 )
                  (  0.0000000  0.0000000  1.0000000 )       (  1.8040000 )


      isym =  7     120 deg rotation - cryst. axis [0,0,1]       

 cryst.   s( 7) = (     0          1          0      )
                  (    -1         -1          0      )
                  (     0          0          1      )

 cart.    s( 7) = ( -0.5000000 -0.8660254  0.0000000 )
                  (  0.8660254 -0.5000000  0.0000000 )
                  (  0.0000000  0.0000000  1.0000000 )


      isym =  8     120 deg rotation - cryst. axis [0,0,-1]      

 cryst.   s( 8) = (    -1         -1          0      )
                  (     1          0          0      )
                  (     0          0          1      )

 cart.    s( 8) = ( -0.5000000  0.8660254  0.0000000 )
                  ( -0.8660254 -0.5000000  0.0000000 )
                  (  0.0000000  0.0000000  1.0000000 )


      isym =  9     180 deg rotation - cryst. axis [1,-1,0]      

 cryst.   s( 9) = (     0         -1          0      )    f =(  0.0000000 )
                  (    -1          0          0      )       (  0.0000000 )
                  (     0          0         -1      )       ( -0.5000000 )

 cart.    s( 9) = (  0.5000000 -0.8660254  0.0000000 )    f =(  0.0000000 )
                  ( -0.8660254 -0.5000000  0.0000000 )       (  0.0000000 )
                  (  0.0000000  0.0000000 -1.0000000 )       ( -1.8040000 )


      isym = 10     180 deg rotation - cryst. axis [2,1,0]       

 cryst.   s(10) = (     1          1          0      )    f =(  0.0000000 )
                  (     0         -1          0      )       (  0.0000000 )
                  (     0          0         -1      )       ( -0.5000000 )

 cart.    s(10) = (  0.5000000  0.8660254  0.0000000 )    f =(  0.0000000 )
                  (  0.8660254 -0.5000000  0.0000000 )       (  0.0000000 )
                  (  0.0000000  0.0000000 -1.0000000 )       ( -1.8040000 )


      isym = 11     180 deg rotation - cryst. axis [0,1,0]       

 cryst.   s(11) = (    -1         -1          0      )
                  (     0          1          0      )
                  (     0          0         -1      )

 cart.    s(11) = ( -0.5000000 -0.8660254  0.0000000 )
                  ( -0.8660254  0.5000000  0.0000000 )
                  (  0.0000000  0.0000000 -1.0000000 )


      isym = 12     180 deg rotation - cryst. axis [1,1,0]       

 cryst.   s(12) = (     0          1          0      )
                  (     1          0          0      )
                  (     0          0         -1      )

 cart.    s(12) = ( -0.5000000  0.8660254  0.0000000 )
                  (  0.8660254  0.5000000  0.0000000 )
                  (  0.0000000  0.0000000 -1.0000000 )


      isym = 13     inversion                                    

 cryst.   s(13) = (    -1          0          0      )
                  (     0         -1          0      )
                  (     0          0         -1      )

 cart.    s(13) = ( -1.0000000  0.0000000  0.0000000 )
                  (  0.0000000 -1.0000000  0.0000000 )
                  (  0.0000000  0.0000000 -1.0000000 )


      isym = 14     inv. 180 deg rotation - cart. axis [0,0,1]   

 cryst.   s(14) = (     1          0          0      )    f =(  0.0000000 )
                  (     0          1          0      )       (  0.0000000 )
                  (     0          0         -1      )       ( -0.5000000 )

 cart.    s(14) = (  1.0000000  0.0000000  0.0000000 )    f =(  0.0000000 )
                  (  0.0000000  1.0000000  0.0000000 )       (  0.0000000 )
                  (  0.0000000  0.0000000 -1.0000000 )       ( -1.8040000 )


      isym = 15     inv. 180 deg rotation - cart. axis [0,1,0]   

 cryst.   s(15) = (     1          0          0      )    f =(  0.0000000 )
                  (    -1         -1          0      )       (  0.0000000 )
                  (     0          0          1      )       (  0.5000000 )

 cart.    s(15) = (  1.0000000  0.0000000  0.0000000 )    f =(  0.0000000 )
                  (  0.0000000 -1.0000000  0.0000000 )       (  0.0000000 )
                  (  0.0000000  0.0000000  1.0000000 )       (  1.8040000 )


      isym = 16     inv. 180 deg rotation - cart. axis [1,0,0]   

 cryst.   s(16) = (    -1          0          0      )
                  (     1          1          0      )
                  (     0          0          1      )

 cart.    s(16) = ( -1.0000000  0.0000000  0.0000000 )
                  (  0.0000000  1.0000000  0.0000000 )
                  (  0.0000000  0.0000000  1.0000000 )


      isym = 17     inv.  60 deg rotation - cryst. axis [0,0,1]  

 cryst.   s(17) = (    -1         -1          0      )    f =(  0.0000000 )
                  (     1          0          0      )       (  0.0000000 )
                  (     0          0         -1      )       ( -0.5000000 )

 cart.    s(17) = ( -0.5000000  0.8660254  0.0000000 )    f =(  0.0000000 )
                  ( -0.8660254 -0.5000000  0.0000000 )       (  0.0000000 )
                  (  0.0000000  0.0000000 -1.0000000 )       ( -1.8040000 )


      isym = 18     inv.  60 deg rotation - cryst. axis [0,0,-1] 

 cryst.   s(18) = (     0          1          0      )    f =(  0.0000000 )
                  (    -1         -1          0      )       (  0.0000000 )
                  (     0          0         -1      )       ( -0.5000000 )

 cart.    s(18) = ( -0.5000000 -0.8660254  0.0000000 )    f =(  0.0000000 )
                  (  0.8660254 -0.5000000  0.0000000 )       (  0.0000000 )
                  (  0.0000000  0.0000000 -1.0000000 )       ( -1.8040000 )


      isym = 19     inv. 120 deg rotation - cryst. axis [0,0,1]  

 cryst.   s(19) = (     0         -1          0      )
                  (     1          1          0      )
                  (     0          0         -1      )

 cart.    s(19) = (  0.5000000  0.8660254  0.0000000 )
                  ( -0.8660254  0.5000000  0.0000000 )
                  (  0.0000000  0.0000000 -1.0000000 )


      isym = 20     inv. 120 deg rotation - cryst. axis [0,0,-1] 

 cryst.   s(20) = (     1          1          0      )
                  (    -1          0          0      )
                  (     0          0         -1      )

 cart.    s(20) = (  0.5000000 -0.8660254  0.0000000 )
                  (  0.8660254  0.5000000  0.0000000 )
                  (  0.0000000  0.0000000 -1.0000000 )


      isym = 21     inv. 180 deg rotation - cryst. axis [1,-1,0] 

 cryst.   s(21) = (     0          1          0      )    f =(  0.0000000 )
                  (     1          0          0      )       (  0.0000000 )
                  (     0          0          1      )       (  0.5000000 )

 cart.    s(21) = ( -0.5000000  0.8660254  0.0000000 )    f =(  0.0000000 )
                  (  0.8660254  0.5000000  0.0000000 )       (  0.0000000 )
                  (  0.0000000  0.0000000  1.0000000 )       (  1.8040000 )


      isym = 22     inv. 180 deg rotation - cryst. axis [2,1,0]  

 cryst.   s(22) = (    -1         -1          0      )    f =(  0.0000000 )
                  (     0          1          0      )       (  0.0000000 )
                  (     0          0          1      )       (  0.5000000 )

 cart.    s(22) = ( -0.5000000 -0.8660254  0.0000000 )    f =(  0.0000000 )
                  ( -0.8660254  0.5000000  0.0000000 )       (  0.0000000 )
                  (  0.0000000  0.0000000  1.0000000 )       (  1.8040000 )


      isym = 23     inv. 180 deg rotation - cryst. axis [0,1,0]  

 cryst.   s(23) = (     1          1          0      )
                  (     0         -1          0      )
                  (     0          0          1      )

 cart.    s(23) = (  0.5000000  0.8660254  0.0000000 )
                  (  0.8660254 -0.5000000  0.0000000 )
                  (  0.0000000  0.0000000  1.0000000 )


      isym = 24     inv. 180 deg rotation - cryst. axis [1,1,0]  

 cryst.   s(24) = (     0         -1          0      )
                  (    -1          0          0      )
                  (     0          0          1      )

 cart.    s(24) = (  0.5000000 -0.8660254  0.0000000 )
                  ( -0.8660254 -0.5000000  0.0000000 )
                  (  0.0000000  0.0000000  1.0000000 )


     point group D_6h(6/mmm)
     there are 12 classes
     the character table:

       E     2C6   2C3   C2    3C2'  3C2'' i     2S3   2S6   s_h   3s_d  3s_v 
A_1g   1.00  1.00  1.00  1.00  1.00  1.00  1.00  1.00  1.00  1.00  1.00  1.00
A_2g   1.00  1.00  1.00  1.00 -1.00 -1.00  1.00  1.00  1.00  1.00 -1.00 -1.00
B_1g   1.00 -1.00  1.00 -1.00  1.00 -1.00  1.00 -1.00  1.00 -1.00  1.00 -1.00
B_2g   1.00 -1.00  1.00 -1.00 -1.00  1.00  1.00 -1.00  1.00 -1.00 -1.00  1.00
E_1g   2.00  1.00 -1.00 -2.00  0.00  0.00  2.00  1.00 -1.00 -2.00  0.00  0.00
E_2g   2.00 -1.00 -1.00  2.00  0.00  0.00  2.00 -1.00 -1.00  2.00  0.00  0.00
A_1u   1.00  1.00  1.00  1.00  1.00  1.00 -1.00 -1.00 -1.00 -1.00 -1.00 -1.00
A_2u   1.00  1.00  1.00  1.00 -1.00 -1.00 -1.00 -1.00 -1.00 -1.00  1.00  1.00
B_1u   1.00 -1.00  1.00 -1.00  1.00 -1.00 -1.00  1.00 -1.00  1.00 -1.00  1.00
B_2u   1.00 -1.00  1.00 -1.00 -1.00  1.00 -1.00  1.00 -1.00  1.00  1.00 -1.00
E_1u   2.00  1.00 -1.00 -2.00  0.00  0.00 -2.00 -1.00  1.00  2.00  0.00  0.00
E_2u   2.00 -1.00 -1.00  2.00  0.00  0.00 -2.00  1.00  1.00 -2.00  0.00  0.00

     the symmetry operations in each class and the name of the first element:

     E        1
                                                                 
     2C6      5    6
                                                                 
     2C3      7    8
                                                                 
     C2       2
                                                                 
     3C2'     4   12   11
                                                                 
     3C2''    3    9   10
                                                                 
     i       13
                                                                 
     2S3     17   18
                                                                 
     2S6     19   20
                                                                 
     s_h     14
                                                                 
     3s_d    16   24   23
                                                                 
     3s_v    15   21   22
                                                                 

   Cartesian axes

     site n.     atom                  positions (alat units)
         1           Li  tau(   1) = (   0.0000000   0.0000000   0.0000000  )
         2           Li  tau(   2) = (   0.0000000   0.0000000   1.8040000  )
         3           Nb  tau(   3) = (   0.5000000   0.2886751   0.9020000  )
         4           Nb  tau(   4) = (  -0.0000000   0.5773502   2.7060000  )
         5           O   tau(   5) = (  -0.0000000   0.5773503   0.4556904  )
         6           O   tau(   6) = (   0.5000000   0.2886751   3.1523097  )
         7           O   tau(   7) = (   0.5000000   0.2886751   2.2596903  )
         8           O   tau(   8) = (  -0.0000000   0.5773503   1.3483096  )

   Crystallographic axes

     site n.     atom                  positions (cryst. coord.)
         1           Li  tau(   1) = (  0.0000000  0.0000000  0.0000000  )
         2           Li  tau(   2) = (  0.0000000  0.0000000  0.5000000  )
         3           Nb  tau(   3) = (  0.6666667  0.3333333  0.2500000  )
         4           Nb  tau(   4) = (  0.3333333  0.6666666  0.7500000  )
         5           O   tau(   5) = (  0.3333333  0.6666667  0.1263000  )
         6           O   tau(   6) = (  0.6666666  0.3333333  0.8737000  )
         7           O   tau(   7) = (  0.6666666  0.3333333  0.6263000  )
         8           O   tau(   8) = (  0.3333333  0.6666667  0.3737000  )

     number of k points=   192  Methfessel-Paxton smearing, width (Ry)=  0.0100
                       cart. coord. in units 2pi/alat
        k(    1) = (   0.0000000   0.0000000   0.0000000), wk =   0.0007289
        k(    2) = (   0.0000000   0.0000000   0.0197973), wk =   0.0014577
        k(    3) = (   0.0000000   0.0000000   0.0395946), wk =   0.0014577
        k(    4) = (   0.0000000   0.0000000   0.0593918), wk =   0.0014577
        k(    5) = (   0.0000000   0.0000000   0.0791891), wk =   0.0014577
        k(    6) = (   0.0000000   0.0000000   0.0989864), wk =   0.0014577
        k(    7) = (   0.0000000   0.0000000   0.1187837), wk =   0.0014577
        k(    8) = (   0.0000000   0.0000000  -0.1385809), wk =   0.0007289
        k(    9) = (   0.0000000   0.0824786   0.0000000), wk =   0.0043732
        k(   10) = (   0.0000000   0.0824786   0.0197973), wk =   0.0087464
        k(   11) = (   0.0000000   0.0824786   0.0395946), wk =   0.0087464
        k(   12) = (   0.0000000   0.0824786   0.0593918), wk =   0.0087464
        k(   13) = (   0.0000000   0.0824786   0.0791891), wk =   0.0087464
        k(   14) = (   0.0000000   0.0824786   0.0989864), wk =   0.0087464
        k(   15) = (   0.0000000   0.0824786   0.1187837), wk =   0.0087464
        k(   16) = (   0.0000000   0.0824786  -0.1385809), wk =   0.0043732
        k(   17) = (   0.0000000   0.1649572   0.0000000), wk =   0.0043732
        k(   18) = (   0.0000000   0.1649572   0.0197973), wk =   0.0087464
        k(   19) = (   0.0000000   0.1649572   0.0395946), wk =   0.0087464
        k(   20) = (   0.0000000   0.1649572   0.0593918), wk =   0.0087464
        k(   21) = (   0.0000000   0.1649572   0.0791891), wk =   0.0087464
        k(   22) = (   0.0000000   0.1649572   0.0989864), wk =   0.0087464
        k(   23) = (   0.0000000   0.1649572   0.1187837), wk =   0.0087464
        k(   24) = (   0.0000000   0.1649572  -0.1385809), wk =   0.0043732
        k(   25) = (   0.0000000   0.2474358   0.0000000), wk =   0.0043732
        k(   26) = (   0.0000000   0.2474358   0.0197973), wk =   0.0087464
        k(   27) = (   0.0000000   0.2474358   0.0395946), wk =   0.0087464
        k(   28) = (   0.0000000   0.2474358   0.0593918), wk =   0.0087464
        k(   29) = (   0.0000000   0.2474358   0.0791891), wk =   0.0087464
        k(   30) = (   0.0000000   0.2474358   0.0989864), wk =   0.0087464
        k(   31) = (   0.0000000   0.2474358   0.1187837), wk =   0.0087464
        k(   32) = (   0.0000000   0.2474358  -0.1385809), wk =   0.0043732
        k(   33) = (   0.0000000   0.3299144   0.0000000), wk =   0.0043732
        k(   34) = (   0.0000000   0.3299144   0.0197973), wk =   0.0087464
        k(   35) = (   0.0000000   0.3299144   0.0395946), wk =   0.0087464
        k(   36) = (   0.0000000   0.3299144   0.0593918), wk =   0.0087464
        k(   37) = (   0.0000000   0.3299144   0.0791891), wk =   0.0087464
        k(   38) = (   0.0000000   0.3299144   0.0989864), wk =   0.0087464
        k(   39) = (   0.0000000   0.3299144   0.1187837), wk =   0.0087464
        k(   40) = (   0.0000000   0.3299144  -0.1385809), wk =   0.0043732
        k(   41) = (   0.0000000   0.4123930   0.0000000), wk =   0.0043732
        k(   42) = (   0.0000000   0.4123930   0.0197973), wk =   0.0087464
        k(   43) = (   0.0000000   0.4123930   0.0395946), wk =   0.0087464
        k(   44) = (   0.0000000   0.4123930   0.0593918), wk =   0.0087464
        k(   45) = (   0.0000000   0.4123930   0.0791891), wk =   0.0087464
        k(   46) = (   0.0000000   0.4123930   0.0989864), wk =   0.0087464
        k(   47) = (   0.0000000   0.4123930   0.1187837), wk =   0.0087464
        k(   48) = (   0.0000000   0.4123930  -0.1385809), wk =   0.0043732
        k(   49) = (   0.0000000   0.4948717   0.0000000), wk =   0.0043732
        k(   50) = (   0.0000000   0.4948717   0.0197973), wk =   0.0087464
        k(   51) = (   0.0000000   0.4948717   0.0395946), wk =   0.0087464
        k(   52) = (   0.0000000   0.4948717   0.0593918), wk =   0.0087464
        k(   53) = (   0.0000000   0.4948717   0.0791891), wk =   0.0087464
        k(   54) = (   0.0000000   0.4948717   0.0989864), wk =   0.0087464
        k(   55) = (   0.0000000   0.4948717   0.1187837), wk =   0.0087464
        k(   56) = (   0.0000000   0.4948717  -0.1385809), wk =   0.0043732
        k(   57) = (   0.0000000  -0.5773503   0.0000000), wk =   0.0021866
        k(   58) = (   0.0000000  -0.5773503   0.0197973), wk =   0.0043732
        k(   59) = (   0.0000000  -0.5773503   0.0395946), wk =   0.0043732
        k(   60) = (   0.0000000  -0.5773503   0.0593918), wk =   0.0043732
        k(   61) = (   0.0000000  -0.5773503   0.0791891), wk =   0.0043732
        k(   62) = (   0.0000000  -0.5773503   0.0989864), wk =   0.0043732
        k(   63) = (   0.0000000  -0.5773503   0.1187837), wk =   0.0043732
        k(   64) = (   0.0000000  -0.5773503  -0.1385809), wk =   0.0021866
        k(   65) = (   0.0714286   0.1237179   0.0000000), wk =   0.0043732
        k(   66) = (   0.0714286   0.1237179   0.0197973), wk =   0.0087464
        k(   67) = (   0.0714286   0.1237179   0.0395946), wk =   0.0087464
        k(   68) = (   0.0714286   0.1237179   0.0593918), wk =   0.0087464
        k(   69) = (   0.0714286   0.1237179   0.0791891), wk =   0.0087464
        k(   70) = (   0.0714286   0.1237179   0.0989864), wk =   0.0087464
        k(   71) = (   0.0714286   0.1237179   0.1187837), wk =   0.0087464
        k(   72) = (   0.0714286   0.1237179  -0.1385809), wk =   0.0043732
        k(   73) = (   0.0714286   0.2061965   0.0000000), wk =   0.0087464
        k(   74) = (   0.0714286   0.2061965   0.0197973), wk =   0.0174927
        k(   75) = (   0.0714286   0.2061965   0.0395946), wk =   0.0174927
        k(   76) = (   0.0714286   0.2061965   0.0593918), wk =   0.0174927
        k(   77) = (   0.0714286   0.2061965   0.0791891), wk =   0.0174927
        k(   78) = (   0.0714286   0.2061965   0.0989864), wk =   0.0174927
        k(   79) = (   0.0714286   0.2061965   0.1187837), wk =   0.0174927
        k(   80) = (   0.0714286   0.2061965  -0.1385809), wk =   0.0087464
        k(   81) = (   0.0714286   0.2886751   0.0000000), wk =   0.0087464
        k(   82) = (   0.0714286   0.2886751   0.0197973), wk =   0.0174927
        k(   83) = (   0.0714286   0.2886751   0.0395946), wk =   0.0174927
        k(   84) = (   0.0714286   0.2886751   0.0593918), wk =   0.0174927
        k(   85) = (   0.0714286   0.2886751   0.0791891), wk =   0.0174927
        k(   86) = (   0.0714286   0.2886751   0.0989864), wk =   0.0174927
        k(   87) = (   0.0714286   0.2886751   0.1187837), wk =   0.0174927
        k(   88) = (   0.0714286   0.2886751  -0.1385809), wk =   0.0087464
        k(   89) = (   0.0714286   0.3711537   0.0000000), wk =   0.0087464
        k(   90) = (   0.0714286   0.3711537   0.0197973), wk =   0.0174927
        k(   91) = (   0.0714286   0.3711537   0.0395946), wk =   0.0174927
        k(   92) = (   0.0714286   0.3711537   0.0593918), wk =   0.0174927
        k(   93) = (   0.0714286   0.3711537   0.0791891), wk =   0.0174927
        k(   94) = (   0.0714286   0.3711537   0.0989864), wk =   0.0174927
        k(   95) = (   0.0714286   0.3711537   0.1187837), wk =   0.0174927
        k(   96) = (   0.0714286   0.3711537  -0.1385809), wk =   0.0087464
        k(   97) = (   0.0714286   0.4536324   0.0000000), wk =   0.0087464
        k(   98) = (   0.0714286   0.4536324   0.0197973), wk =   0.0174927
        k(   99) = (   0.0714286   0.4536324   0.0395946), wk =   0.0174927
        k(  100) = (   0.0714286   0.4536324   0.0593918), wk =   0.0174927
        k(  101) = (   0.0714286   0.4536324   0.0791891), wk =   0.0174927
        k(  102) = (   0.0714286   0.4536324   0.0989864), wk =   0.0174927
        k(  103) = (   0.0714286   0.4536324   0.1187837), wk =   0.0174927
        k(  104) = (   0.0714286   0.4536324  -0.1385809), wk =   0.0087464
        k(  105) = (   0.0714286   0.5361110   0.0000000), wk =   0.0087464
        k(  106) = (   0.0714286   0.5361110   0.0197973), wk =   0.0174927
        k(  107) = (   0.0714286   0.5361110   0.0395946), wk =   0.0174927
        k(  108) = (   0.0714286   0.5361110   0.0593918), wk =   0.0174927
        k(  109) = (   0.0714286   0.5361110   0.0791891), wk =   0.0174927
        k(  110) = (   0.0714286   0.5361110   0.0989864), wk =   0.0174927
        k(  111) = (   0.0714286   0.5361110   0.1187837), wk =   0.0174927
        k(  112) = (   0.0714286   0.5361110  -0.1385809), wk =   0.0087464
        k(  113) = (   0.1428571   0.2474358   0.0000000), wk =   0.0043732
        k(  114) = (   0.1428571   0.2474358   0.0197973), wk =   0.0087464
        k(  115) = (   0.1428571   0.2474358   0.0395946), wk =   0.0087464
        k(  116) = (   0.1428571   0.2474358   0.0593918), wk =   0.0087464
        k(  117) = (   0.1428571   0.2474358   0.0791891), wk =   0.0087464
        k(  118) = (   0.1428571   0.2474358   0.0989864), wk =   0.0087464
        k(  119) = (   0.1428571   0.2474358   0.1187837), wk =   0.0087464
        k(  120) = (   0.1428571   0.2474358  -0.1385809), wk =   0.0043732
        k(  121) = (   0.1428571   0.3299144   0.0000000), wk =   0.0087464
        k(  122) = (   0.1428571   0.3299144   0.0197973), wk =   0.0174927
        k(  123) = (   0.1428571   0.3299144   0.0395946), wk =   0.0174927
        k(  124) = (   0.1428571   0.3299144   0.0593918), wk =   0.0174927
        k(  125) = (   0.1428571   0.3299144   0.0791891), wk =   0.0174927
        k(  126) = (   0.1428571   0.3299144   0.0989864), wk =   0.0174927
        k(  127) = (   0.1428571   0.3299144   0.1187837), wk =   0.0174927
        k(  128) = (   0.1428571   0.3299144  -0.1385809), wk =   0.0087464
        k(  129) = (   0.1428571   0.4123930   0.0000000), wk =   0.0087464
        k(  130) = (   0.1428571   0.4123930   0.0197973), wk =   0.0174927
        k(  131) = (   0.1428571   0.4123930   0.0395946), wk =   0.0174927
        k(  132) = (   0.1428571   0.4123930   0.0593918), wk =   0.0174927
        k(  133) = (   0.1428571   0.4123930   0.0791891), wk =   0.0174927
        k(  134) = (   0.1428571   0.4123930   0.0989864), wk =   0.0174927
        k(  135) = (   0.1428571   0.4123930   0.1187837), wk =   0.0174927
        k(  136) = (   0.1428571   0.4123930  -0.1385809), wk =   0.0087464
        k(  137) = (   0.1428571   0.4948717   0.0000000), wk =   0.0087464
        k(  138) = (   0.1428571   0.4948717   0.0197973), wk =   0.0174927
        k(  139) = (   0.1428571   0.4948717   0.0395946), wk =   0.0174927
        k(  140) = (   0.1428571   0.4948717   0.0593918), wk =   0.0174927
        k(  141) = (   0.1428571   0.4948717   0.0791891), wk =   0.0174927
        k(  142) = (   0.1428571   0.4948717   0.0989864), wk =   0.0174927
        k(  143) = (   0.1428571   0.4948717   0.1187837), wk =   0.0174927
        k(  144) = (   0.1428571   0.4948717  -0.1385809), wk =   0.0087464
        k(  145) = (   0.1428571   0.5773503   0.0000000), wk =   0.0043732
        k(  146) = (   0.1428571   0.5773503   0.0197973), wk =   0.0087464
        k(  147) = (   0.1428571   0.5773503   0.0395946), wk =   0.0087464
        k(  148) = (   0.1428571   0.5773503   0.0593918), wk =   0.0087464
        k(  149) = (   0.1428571   0.5773503   0.0791891), wk =   0.0087464
        k(  150) = (   0.1428571   0.5773503   0.0989864), wk =   0.0087464
        k(  151) = (   0.1428571   0.5773503   0.1187837), wk =   0.0087464
        k(  152) = (   0.1428571   0.5773503  -0.1385809), wk =   0.0043732
        k(  153) = (   0.2142857   0.3711537   0.0000000), wk =   0.0043732
        k(  154) = (   0.2142857   0.3711537   0.0197973), wk =   0.0087464
        k(  155) = (   0.2142857   0.3711537   0.0395946), wk =   0.0087464
        k(  156) = (   0.2142857   0.3711537   0.0593918), wk =   0.0087464
        k(  157) = (   0.2142857   0.3711537   0.0791891), wk =   0.0087464
        k(  158) = (   0.2142857   0.3711537   0.0989864), wk =   0.0087464
        k(  159) = (   0.2142857   0.3711537   0.1187837), wk =   0.0087464
        k(  160) = (   0.2142857   0.3711537  -0.1385809), wk =   0.0043732
        k(  161) = (   0.2142857   0.4536324   0.0000000), wk =   0.0087464
        k(  162) = (   0.2142857   0.4536324   0.0197973), wk =   0.0174927
        k(  163) = (   0.2142857   0.4536324   0.0395946), wk =   0.0174927
        k(  164) = (   0.2142857   0.4536324   0.0593918), wk =   0.0174927
        k(  165) = (   0.2142857   0.4536324   0.0791891), wk =   0.0174927
        k(  166) = (   0.2142857   0.4536324   0.0989864), wk =   0.0174927
        k(  167) = (   0.2142857   0.4536324   0.1187837), wk =   0.0174927
        k(  168) = (   0.2142857   0.4536324  -0.1385809), wk =   0.0087464
        k(  169) = (   0.2142857   0.5361110   0.0000000), wk =   0.0087464
        k(  170) = (   0.2142857   0.5361110   0.0197973), wk =   0.0174927
        k(  171) = (   0.2142857   0.5361110   0.0395946), wk =   0.0174927
        k(  172) = (   0.2142857   0.5361110   0.0593918), wk =   0.0174927
        k(  173) = (   0.2142857   0.5361110   0.0791891), wk =   0.0174927
        k(  174) = (   0.2142857   0.5361110   0.0989864), wk =   0.0174927
        k(  175) = (   0.2142857   0.5361110   0.1187837), wk =   0.0174927
        k(  176) = (   0.2142857   0.5361110  -0.1385809), wk =   0.0087464
        k(  177) = (   0.2857143   0.4948717   0.0000000), wk =   0.0043732
        k(  178) = (   0.2857143   0.4948717   0.0197973), wk =   0.0087464
        k(  179) = (   0.2857143   0.4948717   0.0395946), wk =   0.0087464
        k(  180) = (   0.2857143   0.4948717   0.0593918), wk =   0.0087464
        k(  181) = (   0.2857143   0.4948717   0.0791891), wk =   0.0087464
        k(  182) = (   0.2857143   0.4948717   0.0989864), wk =   0.0087464
        k(  183) = (   0.2857143   0.4948717   0.1187837), wk =   0.0087464
        k(  184) = (   0.2857143   0.4948717  -0.1385809), wk =   0.0043732
        k(  185) = (   0.2857143   0.5773503   0.0000000), wk =   0.0043732
        k(  186) = (   0.2857143   0.5773503   0.0197973), wk =   0.0087464
        k(  187) = (   0.2857143   0.5773503   0.0395946), wk =   0.0087464
        k(  188) = (   0.2857143   0.5773503   0.0593918), wk =   0.0087464
        k(  189) = (   0.2857143   0.5773503   0.0791891), wk =   0.0087464
        k(  190) = (   0.2857143   0.5773503   0.0989864), wk =   0.0087464
        k(  191) = (   0.2857143   0.5773503   0.1187837), wk =   0.0087464
        k(  192) = (   0.2857143   0.5773503  -0.1385809), wk =   0.0043732

                       cryst. coord.
        k(    1) = (   0.0000000   0.0000000   0.0000000), wk =   0.0007289
        k(    2) = (   0.0000000   0.0000000   0.0714286), wk =   0.0014577
        k(    3) = (   0.0000000   0.0000000   0.1428571), wk =   0.0014577
        k(    4) = (   0.0000000   0.0000000   0.2142857), wk =   0.0014577
        k(    5) = (   0.0000000   0.0000000   0.2857143), wk =   0.0014577
        k(    6) = (   0.0000000   0.0000000   0.3571429), wk =   0.0014577
        k(    7) = (   0.0000000   0.0000000   0.4285714), wk =   0.0014577
        k(    8) = (   0.0000000   0.0000000  -0.5000000), wk =   0.0007289
        k(    9) = (   0.0000000   0.0714286   0.0000000), wk =   0.0043732
        k(   10) = (   0.0000000   0.0714286   0.0714286), wk =   0.0087464
        k(   11) = (   0.0000000   0.0714286   0.1428571), wk =   0.0087464
        k(   12) = (   0.0000000   0.0714286   0.2142857), wk =   0.0087464
        k(   13) = (   0.0000000   0.0714286   0.2857143), wk =   0.0087464
        k(   14) = (   0.0000000   0.0714286   0.3571429), wk =   0.0087464
        k(   15) = (   0.0000000   0.0714286   0.4285714), wk =   0.0087464
        k(   16) = (   0.0000000   0.0714286  -0.5000000), wk =   0.0043732
        k(   17) = (   0.0000000   0.1428571   0.0000000), wk =   0.0043732
        k(   18) = (   0.0000000   0.1428571   0.0714286), wk =   0.0087464
        k(   19) = (   0.0000000   0.1428571   0.1428571), wk =   0.0087464
        k(   20) = (   0.0000000   0.1428571   0.2142857), wk =   0.0087464
        k(   21) = (   0.0000000   0.1428571   0.2857143), wk =   0.0087464
        k(   22) = (   0.0000000   0.1428571   0.3571429), wk =   0.0087464
        k(   23) = (   0.0000000   0.1428571   0.4285714), wk =   0.0087464
        k(   24) = (   0.0000000   0.1428571  -0.5000000), wk =   0.0043732
        k(   25) = (   0.0000000   0.2142857   0.0000000), wk =   0.0043732
        k(   26) = (   0.0000000   0.2142857   0.0714286), wk =   0.0087464
        k(   27) = (   0.0000000   0.2142857   0.1428571), wk =   0.0087464
        k(   28) = (   0.0000000   0.2142857   0.2142857), wk =   0.0087464
        k(   29) = (   0.0000000   0.2142857   0.2857143), wk =   0.0087464
        k(   30) = (   0.0000000   0.2142857   0.3571429), wk =   0.0087464
        k(   31) = (   0.0000000   0.2142857   0.4285714), wk =   0.0087464
        k(   32) = (   0.0000000   0.2142857  -0.5000000), wk =   0.0043732
        k(   33) = (   0.0000000   0.2857143   0.0000000), wk =   0.0043732
        k(   34) = (   0.0000000   0.2857143   0.0714286), wk =   0.0087464
        k(   35) = (   0.0000000   0.2857143   0.1428571), wk =   0.0087464
        k(   36) = (   0.0000000   0.2857143   0.2142857), wk =   0.0087464
        k(   37) = (   0.0000000   0.2857143   0.2857143), wk =   0.0087464
        k(   38) = (   0.0000000   0.2857143   0.3571429), wk =   0.0087464
        k(   39) = (   0.0000000   0.2857143   0.4285714), wk =   0.0087464
        k(   40) = (   0.0000000   0.2857143  -0.5000000), wk =   0.0043732
        k(   41) = (   0.0000000   0.3571429   0.0000000), wk =   0.0043732
        k(   42) = (   0.0000000   0.3571429   0.0714286), wk =   0.0087464
        k(   43) = (   0.0000000   0.3571429   0.1428571), wk =   0.0087464
        k(   44) = (   0.0000000   0.3571429   0.2142857), wk =   0.0087464
        k(   45) = (   0.0000000   0.3571429   0.2857143), wk =   0.0087464
        k(   46) = (   0.0000000   0.3571429   0.3571429), wk =   0.0087464
        k(   47) = (   0.0000000   0.3571429   0.4285714), wk =   0.0087464
        k(   48) = (   0.0000000   0.3571429  -0.5000000), wk =   0.0043732
        k(   49) = (   0.0000000   0.4285714   0.0000000), wk =   0.0043732
        k(   50) = (   0.0000000   0.4285714   0.0714286), wk =   0.0087464
        k(   51) = (   0.0000000   0.4285714   0.1428571), wk =   0.0087464
        k(   52) = (   0.0000000   0.4285714   0.2142857), wk =   0.0087464
        k(   53) = (   0.0000000   0.4285714   0.2857143), wk =   0.0087464
        k(   54) = (   0.0000000   0.4285714   0.3571429), wk =   0.0087464
        k(   55) = (   0.0000000   0.4285714   0.4285714), wk =   0.0087464
        k(   56) = (   0.0000000   0.4285714  -0.5000000), wk =   0.0043732
        k(   57) = (   0.0000000  -0.5000000   0.0000000), wk =   0.0021866
        k(   58) = (   0.0000000  -0.5000000   0.0714286), wk =   0.0043732
        k(   59) = (   0.0000000  -0.5000000   0.1428571), wk =   0.0043732
        k(   60) = (   0.0000000  -0.5000000   0.2142857), wk =   0.0043732
        k(   61) = (   0.0000000  -0.5000000   0.2857143), wk =   0.0043732
        k(   62) = (   0.0000000  -0.5000000   0.3571429), wk =   0.0043732
        k(   63) = (   0.0000000  -0.5000000   0.4285714), wk =   0.0043732
        k(   64) = (   0.0000000  -0.5000000  -0.5000000), wk =   0.0021866
        k(   65) = (   0.0714286   0.0714286   0.0000000), wk =   0.0043732
        k(   66) = (   0.0714286   0.0714286   0.0714286), wk =   0.0087464
        k(   67) = (   0.0714286   0.0714286   0.1428571), wk =   0.0087464
        k(   68) = (   0.0714286   0.0714286   0.2142857), wk =   0.0087464
        k(   69) = (   0.0714286   0.0714286   0.2857143), wk =   0.0087464
        k(   70) = (   0.0714286   0.0714286   0.3571429), wk =   0.0087464
        k(   71) = (   0.0714286   0.0714286   0.4285714), wk =   0.0087464
        k(   72) = (   0.0714286   0.0714286  -0.5000000), wk =   0.0043732
        k(   73) = (   0.0714286   0.1428571   0.0000000), wk =   0.0087464
        k(   74) = (   0.0714286   0.1428571   0.0714286), wk =   0.0174927
        k(   75) = (   0.0714286   0.1428571   0.1428571), wk =   0.0174927
        k(   76) = (   0.0714286   0.1428571   0.2142857), wk =   0.0174927
        k(   77) = (   0.0714286   0.1428571   0.2857143), wk =   0.0174927
        k(   78) = (   0.0714286   0.1428571   0.3571429), wk =   0.0174927
        k(   79) = (   0.0714286   0.1428571   0.4285714), wk =   0.0174927
        k(   80) = (   0.0714286   0.1428571  -0.5000000), wk =   0.0087464
        k(   81) = (   0.0714286   0.2142857   0.0000000), wk =   0.0087464
        k(   82) = (   0.0714286   0.2142857   0.0714286), wk =   0.0174927
        k(   83) = (   0.0714286   0.2142857   0.1428571), wk =   0.0174927
        k(   84) = (   0.0714286   0.2142857   0.2142857), wk =   0.0174927
        k(   85) = (   0.0714286   0.2142857   0.2857143), wk =   0.0174927
        k(   86) = (   0.0714286   0.2142857   0.3571429), wk =   0.0174927
        k(   87) = (   0.0714286   0.2142857   0.4285714), wk =   0.0174927
        k(   88) = (   0.0714286   0.2142857  -0.5000000), wk =   0.0087464
        k(   89) = (   0.0714286   0.2857143   0.0000000), wk =   0.0087464
        k(   90) = (   0.0714286   0.2857143   0.0714286), wk =   0.0174927
        k(   91) = (   0.0714286   0.2857143   0.1428571), wk =   0.0174927
        k(   92) = (   0.0714286   0.2857143   0.2142857), wk =   0.0174927
        k(   93) = (   0.0714286   0.2857143   0.2857143), wk =   0.0174927
        k(   94) = (   0.0714286   0.2857143   0.3571429), wk =   0.0174927
        k(   95) = (   0.0714286   0.2857143   0.4285714), wk =   0.0174927
        k(   96) = (   0.0714286   0.2857143  -0.5000000), wk =   0.0087464
        k(   97) = (   0.0714286   0.3571429   0.0000000), wk =   0.0087464
        k(   98) = (   0.0714286   0.3571429   0.0714286), wk =   0.0174927
        k(   99) = (   0.0714286   0.3571429   0.1428571), wk =   0.0174927
        k(  100) = (   0.0714286   0.3571429   0.2142857), wk =   0.0174927
        k(  101) = (   0.0714286   0.3571429   0.2857143), wk =   0.0174927
        k(  102) = (   0.0714286   0.3571429   0.3571429), wk =   0.0174927
        k(  103) = (   0.0714286   0.3571429   0.4285714), wk =   0.0174927
        k(  104) = (   0.0714286   0.3571429  -0.5000000), wk =   0.0087464
        k(  105) = (   0.0714286   0.4285714   0.0000000), wk =   0.0087464
        k(  106) = (   0.0714286   0.4285714   0.0714286), wk =   0.0174927
        k(  107) = (   0.0714286   0.4285714   0.1428571), wk =   0.0174927
        k(  108) = (   0.0714286   0.4285714   0.2142857), wk =   0.0174927
        k(  109) = (   0.0714286   0.4285714   0.2857143), wk =   0.0174927
        k(  110) = (   0.0714286   0.4285714   0.3571429), wk =   0.0174927
        k(  111) = (   0.0714286   0.4285714   0.4285714), wk =   0.0174927
        k(  112) = (   0.0714286   0.4285714  -0.5000000), wk =   0.0087464
        k(  113) = (   0.1428571   0.1428571   0.0000000), wk =   0.0043732
        k(  114) = (   0.1428571   0.1428571   0.0714286), wk =   0.0087464
        k(  115) = (   0.1428571   0.1428571   0.1428571), wk =   0.0087464
        k(  116) = (   0.1428571   0.1428571   0.2142857), wk =   0.0087464
        k(  117) = (   0.1428571   0.1428571   0.2857143), wk =   0.0087464
        k(  118) = (   0.1428571   0.1428571   0.3571429), wk =   0.0087464
        k(  119) = (   0.1428571   0.1428571   0.4285714), wk =   0.0087464
        k(  120) = (   0.1428571   0.1428571  -0.5000000), wk =   0.0043732
        k(  121) = (   0.1428571   0.2142857   0.0000000), wk =   0.0087464
        k(  122) = (   0.1428571   0.2142857   0.0714286), wk =   0.0174927
        k(  123) = (   0.1428571   0.2142857   0.1428571), wk =   0.0174927
        k(  124) = (   0.1428571   0.2142857   0.2142857), wk =   0.0174927
        k(  125) = (   0.1428571   0.2142857   0.2857143), wk =   0.0174927
        k(  126) = (   0.1428571   0.2142857   0.3571429), wk =   0.0174927
        k(  127) = (   0.1428571   0.2142857   0.4285714), wk =   0.0174927
        k(  128) = (   0.1428571   0.2142857  -0.5000000), wk =   0.0087464
        k(  129) = (   0.1428571   0.2857143   0.0000000), wk =   0.0087464
        k(  130) = (   0.1428571   0.2857143   0.0714286), wk =   0.0174927
        k(  131) = (   0.1428571   0.2857143   0.1428571), wk =   0.0174927
        k(  132) = (   0.1428571   0.2857143   0.2142857), wk =   0.0174927
        k(  133) = (   0.1428571   0.2857143   0.2857143), wk =   0.0174927
        k(  134) = (   0.1428571   0.2857143   0.3571429), wk =   0.0174927
        k(  135) = (   0.1428571   0.2857143   0.4285714), wk =   0.0174927
        k(  136) = (   0.1428571   0.2857143  -0.5000000), wk =   0.0087464
        k(  137) = (   0.1428571   0.3571429   0.0000000), wk =   0.0087464
        k(  138) = (   0.1428571   0.3571429   0.0714286), wk =   0.0174927
        k(  139) = (   0.1428571   0.3571429   0.1428571), wk =   0.0174927
        k(  140) = (   0.1428571   0.3571429   0.2142857), wk =   0.0174927
        k(  141) = (   0.1428571   0.3571429   0.2857143), wk =   0.0174927
        k(  142) = (   0.1428571   0.3571429   0.3571429), wk =   0.0174927
        k(  143) = (   0.1428571   0.3571429   0.4285714), wk =   0.0174927
        k(  144) = (   0.1428571   0.3571429  -0.5000000), wk =   0.0087464
        k(  145) = (   0.1428571   0.4285714   0.0000000), wk =   0.0043732
        k(  146) = (   0.1428571   0.4285714   0.0714286), wk =   0.0087464
        k(  147) = (   0.1428571   0.4285714   0.1428571), wk =   0.0087464
        k(  148) = (   0.1428571   0.4285714   0.2142857), wk =   0.0087464
        k(  149) = (   0.1428571   0.4285714   0.2857143), wk =   0.0087464
        k(  150) = (   0.1428571   0.4285714   0.3571429), wk =   0.0087464
        k(  151) = (   0.1428571   0.4285714   0.4285714), wk =   0.0087464
        k(  152) = (   0.1428571   0.4285714  -0.5000000), wk =   0.0043732
        k(  153) = (   0.2142857   0.2142857   0.0000000), wk =   0.0043732
        k(  154) = (   0.2142857   0.2142857   0.0714286), wk =   0.0087464
        k(  155) = (   0.2142857   0.2142857   0.1428571), wk =   0.0087464
        k(  156) = (   0.2142857   0.2142857   0.2142857), wk =   0.0087464
        k(  157) = (   0.2142857   0.2142857   0.2857143), wk =   0.0087464
        k(  158) = (   0.2142857   0.2142857   0.3571429), wk =   0.0087464
        k(  159) = (   0.2142857   0.2142857   0.4285714), wk =   0.0087464
        k(  160) = (   0.2142857   0.2142857  -0.5000000), wk =   0.0043732
        k(  161) = (   0.2142857   0.2857143   0.0000000), wk =   0.0087464
        k(  162) = (   0.2142857   0.2857143   0.0714286), wk =   0.0174927
        k(  163) = (   0.2142857   0.2857143   0.1428571), wk =   0.0174927
        k(  164) = (   0.2142857   0.2857143   0.2142857), wk =   0.0174927
        k(  165) = (   0.2142857   0.2857143   0.2857143), wk =   0.0174927
        k(  166) = (   0.2142857   0.2857143   0.3571429), wk =   0.0174927
        k(  167) = (   0.2142857   0.2857143   0.4285714), wk =   0.0174927
        k(  168) = (   0.2142857   0.2857143  -0.5000000), wk =   0.0087464
        k(  169) = (   0.2142857   0.3571429   0.0000000), wk =   0.0087464
        k(  170) = (   0.2142857   0.3571429   0.0714286), wk =   0.0174927
        k(  171) = (   0.2142857   0.3571429   0.1428571), wk =   0.0174927
        k(  172) = (   0.2142857   0.3571429   0.2142857), wk =   0.0174927
        k(  173) = (   0.2142857   0.3571429   0.2857143), wk =   0.0174927
        k(  174) = (   0.2142857   0.3571429   0.3571429), wk =   0.0174927
        k(  175) = (   0.2142857   0.3571429   0.4285714), wk =   0.0174927
        k(  176) = (   0.2142857   0.3571429  -0.5000000), wk =   0.0087464
        k(  177) = (   0.2857143   0.2857143   0.0000000), wk =   0.0043732
        k(  178) = (   0.2857143   0.2857143   0.0714286), wk =   0.0087464
        k(  179) = (   0.2857143   0.2857143   0.1428571), wk =   0.0087464
        k(  180) = (   0.2857143   0.2857143   0.2142857), wk =   0.0087464
        k(  181) = (   0.2857143   0.2857143   0.2857143), wk =   0.0087464
        k(  182) = (   0.2857143   0.2857143   0.3571429), wk =   0.0087464
        k(  183) = (   0.2857143   0.2857143   0.4285714), wk =   0.0087464
        k(  184) = (   0.2857143   0.2857143  -0.5000000), wk =   0.0043732
        k(  185) = (   0.2857143   0.3571429   0.0000000), wk =   0.0043732
        k(  186) = (   0.2857143   0.3571429   0.0714286), wk =   0.0087464
        k(  187) = (   0.2857143   0.3571429   0.1428571), wk =   0.0087464
        k(  188) = (   0.2857143   0.3571429   0.2142857), wk =   0.0087464
        k(  189) = (   0.2857143   0.3571429   0.2857143), wk =   0.0087464
        k(  190) = (   0.2857143   0.3571429   0.3571429), wk =   0.0087464
        k(  191) = (   0.2857143   0.3571429   0.4285714), wk =   0.0087464
        k(  192) = (   0.2857143   0.3571429  -0.5000000), wk =   0.0043732

     Dense  grid:    56025 G-vectors     FFT dimensions: (  36,  36, 120)

     Smooth grid:    31831 G-vectors     FFT dimensions: (  27,  27, 100)

     Largest allocated arrays     est. size (Mb)     dimensions
        Kohn-Sham Wavefunctions         0.13 Mb     (     254,   34)
        NL pseudopotentials             0.33 Mb     (     254,   84)
        Each V/rho on FFT grid          0.16 Mb     (   10368)
        Each G-vector array             0.03 Mb     (    3501)
        G-vector shells                 0.01 Mb     (    1501)
     Largest temporary arrays     est. size (Mb)     dimensions
        Auxiliary wavefunctions         0.53 Mb     (     254,  136)
        Each subspace H/S matrix        0.28 Mb     (     136,  136)
        Each <psi_i|beta_j> matrix      0.04 Mb     (      84,   34)
        Arrays for rho mixing           1.27 Mb     (   10368,    8)

     Check: negative/imaginary core charge=   -0.000069    0.000000

     Initial potential from superposition of free atoms

     starting charge   55.98732, renormalised to   56.00000
     Starting wfc are   40 randomized atomic wfcs

     total cpu time spent up to now is       10.4 secs

     per-process dynamical memory:    39.3 Mb

     Self-consistent Calculation

     iteration #  1     ecut=    60.00 Ry     beta=0.70
     Davidson diagonalization with overlap
     ethr =  1.00E-02,  avg # of iterations =  2.4

     total cpu time spent up to now is       27.2 secs

     total energy              =    -419.00831321 Ry
     Harris-Foulkes estimate   =    -420.88694582 Ry
     estimated scf accuracy    <       2.32775548 Ry

     iteration #  2     ecut=    60.00 Ry     beta=0.70
     Davidson diagonalization with overlap
     ethr =  4.16E-03,  avg # of iterations =  4.9

     total cpu time spent up to now is       52.9 secs

     total energy              =    -418.07856038 Ry
     Harris-Foulkes estimate   =    -422.02205591 Ry
     estimated scf accuracy    <      10.96899354 Ry

     iteration #  3     ecut=    60.00 Ry     beta=0.70
     Davidson diagonalization with overlap
     ethr =  4.16E-03,  avg # of iterations =  3.4

     total cpu time spent up to now is       72.8 secs

     total energy              =    -420.27684943 Ry
     Harris-Foulkes estimate   =    -420.34696870 Ry
     estimated scf accuracy    <       0.24751296 Ry

     iteration #  4     ecut=    60.00 Ry     beta=0.70
     Davidson diagonalization with overlap
     ethr =  4.42E-04,  avg # of iterations =  2.0

     total cpu time spent up to now is       87.5 secs

     total energy              =    -420.26116555 Ry
     Harris-Foulkes estimate   =    -420.29677516 Ry
     estimated scf accuracy    <       0.07531860 Ry

     iteration #  5     ecut=    60.00 Ry     beta=0.70
     Davidson diagonalization with overlap
     ethr =  1.34E-04,  avg # of iterations =  3.7

     total cpu time spent up to now is      105.9 secs

     total energy              =    -420.28037451 Ry
     Harris-Foulkes estimate   =    -420.28160265 Ry
     estimated scf accuracy    <       0.00367713 Ry

     iteration #  6     ecut=    60.00 Ry     beta=0.70
     Davidson diagonalization with overlap
     ethr =  6.57E-06,  avg # of iterations =  3.9

     total cpu time spent up to now is      124.1 secs

     total energy              =    -420.28082559 Ry
     Harris-Foulkes estimate   =    -420.28091719 Ry
     estimated scf accuracy    <       0.00024405 Ry

     iteration #  7     ecut=    60.00 Ry     beta=0.70
     Davidson diagonalization with overlap
     ethr =  4.36E-07,  avg # of iterations =  3.9

     total cpu time spent up to now is      144.5 secs

     total energy              =    -420.28090574 Ry
     Harris-Foulkes estimate   =    -420.28090654 Ry
     estimated scf accuracy    <       0.00000158 Ry

     iteration #  8     ecut=    60.00 Ry     beta=0.70
     Davidson diagonalization with overlap
     ethr =  2.83E-09,  avg # of iterations =  4.0

     total cpu time spent up to now is      169.1 secs

     total energy              =    -420.28090754 Ry
     Harris-Foulkes estimate   =    -420.28090766 Ry
     estimated scf accuracy    <       0.00000019 Ry

     iteration #  9     ecut=    60.00 Ry     beta=0.70
     Davidson diagonalization with overlap
     ethr =  3.39E-10,  avg # of iterations =  3.2

     total cpu time spent up to now is      186.8 secs

     total energy              =    -420.28090759 Ry
     Harris-Foulkes estimate   =    -420.28090761 Ry
     estimated scf accuracy    <       0.00000003 Ry

     iteration # 10     ecut=    60.00 Ry     beta=0.70
     Davidson diagonalization with overlap
     ethr =  6.15E-11,  avg # of iterations =  2.5

     total cpu time spent up to now is      203.4 secs

     End of self-consistent calculation

          k = 0.0000 0.0000 0.0000 (  4009 PWs)   bands (ev):

   -42.0527 -42.0526 -31.3687 -31.3682 -18.5659 -18.5654 -17.5343 -17.5343
   -17.5342 -17.5342  -6.8670  -6.7074  -5.4604  -5.2438   5.2466   6.1665
     8.1424   8.1424   8.1622   8.1748   8.1748   8.9162   8.9162   8.9889
     8.9889   9.7372  13.2897  13.7322  15.3988  15.3988  15.4821  15.4821
    16.5903  16.5903

     occupation numbers 
     1.0000   1.0000   1.0000   1.0000   1.0000   1.0000   1.0000   1.0000
     1.0000   1.0000   1.0000   1.0000   1.0000   1.0000   1.0000   1.0000
     1.0000   1.0000   1.0000   1.0000   1.0000   1.0000   1.0000   1.0000
     1.0000   1.0000   1.0000   1.0000  -0.0000  -0.0000  -0.0000  -0.0000
    -0.0000  -0.0000

          k = 0.0000 0.0000 0.0198 (  4015 PWs)   bands (ev):

   -42.0527 -42.0526 -31.3687 -31.3683 -18.5659 -18.5654 -17.5343 -17.5343
   -17.5342 -17.5342  -6.8653  -6.7097  -5.4574  -5.2463   5.2549   6.1480
     8.1427   8.1427   8.1744   8.1744   8.1872   8.9172   8.9172   8.9879
     8.9879   9.7186  13.2979  13.7285  15.3998  15.3998  15.4811  15.4811
    16.5915  16.5915

     occupation numbers 
     1.0000   1.0000   1.0000   1.0000   1.0000   1.0000   1.0000   1.0000
     1.0000   1.0000   1.0000   1.0000   1.0000   1.0000   1.0000   1.0000
     1.0000   1.0000   1.0000   1.0000   1.0000   1.0000   1.0000   1.0000
     1.0000   1.0000   1.0000   1.0000  -0.0000  -0.0000  -0.0000  -0.0000
    -0.0000  -0.0000

          k = 0.0000 0.0000 0.0396 (  3985 PWs)   bands (ev):

   -42.0527 -42.0526 -31.3687 -31.3682 -18.5658 -18.5654 -17.5343 -17.5343
   -17.5342 -17.5342  -6.8600  -6.7165  -5.4486  -5.2536   5.2795   6.0960
     8.1439   8.1439   8.1732   8.1732   8.2594   8.9200   8.9200   8.9854
     8.9854   9.6636  13.3215  13.7175  15.4029  15.4029  15.4780  15.4780
    16.5953  16.5953

     occupation numbers 
     1.0000   1.0000   1.0000   1.0000   1.0000   1.0000   1.0000   1.0000
     1.0000   1.0000   1.0000   1.0000   1.0000   1.0000   1.0000   1.0000
     1.0000   1.0000   1.0000   1.0000   1.0000   1.0000   1.0000   1.0000
     1.0000   1.0000   1.0000   1.0000  -0.0000  -0.0000  -0.0000  -0.0000
    -0.0000  -0.0000

          k = 0.0000 0.0000 0.0594 (  3985 PWs)   bands (ev):

   -42.0527 -42.0526 -31.3686 -31.3682 -18.5658 -18.5654 -17.5343 -17.5343
   -17.5342 -17.5342  -6.8516  -6.7272  -5.4344  -5.2655   5.3199   6.0182
     8.1457   8.1457   8.1711   8.1711   8.3696   8.9244   8.9244   8.9812
     8.9812   9.5757  13.3577  13.6991  15.4079  15.4079  15.4730  15.4730
    16.6014  16.6014

     occupation numbers 
     1.0000   1.0000   1.0000   1.0000   1.0000   1.0000   1.0000   1.0000
     1.0000   1.0000   1.0000   1.0000   1.0000   1.0000   1.0000   1.0000
     1.0000   1.0000   1.0000   1.0000   1.0000   1.0000   1.0000   1.0000
     1.0000   1.0000   1.0000   1.0000  -0.0000  -0.0000  -0.0000  -0.0000
    -0.0000  -0.0000

          k = 0.0000 0.0000 0.0792 (  3990 PWs)   bands (ev):

   -42.0527 -42.0526 -31.3686 -31.3683 -18.5658 -18.5655 -17.5343 -17.5343
   -17.5342 -17.5342  -6.8401  -6.7412  -5.4160  -5.2815   5.3754   5.9239
     8.1481   8.1481   8.1684   8.1684   8.5078   8.9303   8.9303   8.9756
     8.9756   9.4597  13.4029  13.6731  15.4145  15.4145  15.4664  15.4664
    16.6095  16.6096

     occupation numbers 
     1.0000   1.0000   1.0000   1.0000   1.0000   1.0000   1.0000   1.0000
     1.0000   1.0000   1.0000   1.0000   1.0000   1.0000   1.0000   1.0000
     1.0000   1.0000   1.0000   1.0000   1.0000   1.0000   1.0000   1.0000
     1.0000   1.0000   1.0000   1.0000  -0.0000  -0.0000  -0.0000  -0.0000
    -0.0000  -0.0000

          k = 0.0000 0.0000 0.0990 (  3990 PWs)   bands (ev):

   -42.0527 -42.0526 -31.3686 -31.3683 -18.5657 -18.5655 -17.5343 -17.5343
   -17.5342 -17.5342  -6.8261  -6.7574  -5.3945  -5.3010   5.4448   5.8218
     8.1511   8.1511   8.1652   8.1652   8.6646   8.9373   8.9373   8.9688
     8.9688   9.3212  13.4532  13.6400  15.4224  15.4224  15.4585  15.4585
    16.6193  16.6193

     occupation numbers 
     1.0000   1.0000   1.0000   1.0000   1.0000   1.0000   1.0000   1.0000
     1.0000   1.0000   1.0000   1.0000   1.0000   1.0000   1.0000   1.0000
     1.0000   1.0000   1.0000   1.0000   1.0000   1.0000   1.0000   1.0000
     1.0000   1.0000   1.0000   1.0000  -0.0000  -0.0000  -0.0000  -0.0000
    -0.0000  -0.0000

          k = 0.0000 0.0000 0.1188 (  4008 PWs)   bands (ev):

   -42.0527 -42.0526 -31.3685 -31.3684 -18.5657 -18.5656 -17.5343 -17.5343
   -17.5342 -17.5342  -6.8102  -6.7749  -5.3709  -5.3231   5.5264   5.7183
     8.1544   8.1544   8.1616   8.1616   8.8313   8.9450   8.9450   8.9612
     8.9612   9.1661  13.5046  13.6001  15.4312  15.4312  15.4497  15.4497
    16.6304  16.6306

     occupation numbers 
     1.0000   1.0000   1.0000   1.0000   1.0000   1.0000   1.0000   1.0000
     1.0000   1.0000   1.0000   1.0000   1.0000   1.0000   1.0000   1.0000
     1.0000   1.0000   1.0000   1.0000   1.0000   1.0000   1.0000   1.0000
     1.0000   1.0000   1.0000   1.0000  -0.0000  -0.0000  -0.0000  -0.0000
    -0.0000  -0.0000

          k = 0.0000 0.0000-0.1386 (  3996 PWs)   bands (ev):

   -42.0527 -42.0526 -31.3684 -31.3684 -18.5656 -18.5656 -17.5343 -17.5343
   -17.5342 -17.5342  -6.7928  -6.7928  -5.3467  -5.3467   5.6186   5.6186
     8.1580   8.1580   8.1580   8.1580   8.9531   8.9531   8.9532   8.9532
     9.0008   9.0008  13.5544  13.5544  15.4404  15.4404  15.4405  15.4405
    16.6417  16.6418

     occupation numbers 
     1.0000   1.0000   1.0000   1.0000   1.0000   1.0000   1.0000   1.0000
     1.0000   1.0000   1.0000   1.0000   1.0000   1.0000   1.0000   1.0000
     1.0000   1.0000   1.0000   1.0000   1.0000   1.0000   1.0000   1.0000
     1.0000   1.0000   1.0000   1.0000  -0.0000  -0.0000  -0.0000  -0.0000
    -0.0000  -0.0000

          k = 0.0000 0.0825 0.0000 (  3979 PWs)   bands (ev):

   -42.0422 -42.0421 -31.3671 -31.3666 -18.5452 -18.5446 -17.6194 -17.6193
   -17.5505 -17.5505  -6.7971  -6.6359  -5.4815  -5.2686   5.3308   6.2597
     7.9631   7.9728   8.0229   8.1989   8.2484   8.7053   8.8231   8.9133
     9.0874   9.8058  13.2367  13.4868  15.4405  15.4599  15.5410  15.5560
    16.4657  16.5397

     occupation numbers 
     1.0000   1.0000   1.0000   1.0000   1.0000   1.0000   1.0000   1.0000
     1.0000   1.0000   1.0000   1.0000   1.0000   1.0000   1.0000   1.0000
     1.0000   1.0000   1.0000   1.0000   1.0000   1.0000   1.0000   1.0000
     1.0000   1.0000   1.0000   1.0000  -0.0000  -0.0000  -0.0000  -0.0000
    -0.0000  -0.0000

          k = 0.0000 0.0825 0.0198 (  3985 PWs)   bands (ev):

   -42.0422 -42.0421 -31.3671 -31.3666 -18.5452 -18.5446 -17.6194 -17.6193
   -17.5505 -17.5505  -6.7954  -6.6382  -5.4785  -5.2710   5.3389   6.2402
     7.9637   7.9951   8.0226   8.1994   8.2477   8.7044   8.8243   8.9122
     9.0893   9.7902  13.2420  13.4851  15.4417  15.4613  15.5398  15.5551
    16.4667  16.5389

     occupation numbers 
     1.0000   1.0000   1.0000   1.0000   1.0000   1.0000   1.0000   1.0000
     1.0000   1.0000   1.0000   1.0000   1.0000   1.0000   1.0000   1.0000
     1.0000   1.0000   1.0000   1.0000   1.0000   1.0000   1.0000   1.0000
     1.0000   1.0000   1.0000   1.0000  -0.0000  -0.0000  -0.0000  -0.0000
    -0.0000  -0.0000

          k = 0.0000 0.0825 0.0396 (  3989 PWs)   bands (ev):

   -42.0422 -42.0421 -31.3671 -31.3666 -18.5451 -18.5446 -17.6194 -17.6193
   -17.5505 -17.5505  -6.7902  -6.6451  -5.4697  -5.2781   5.3631   6.1856
     7.9657   8.0183   8.0610   8.2011   8.2456   8.7011   8.8278   8.9091
     9.0952   9.7450  13.2570  13.4801  15.4454  15.4657  15.5360  15.5525
    16.4698  16.5365

     occupation numbers 
     1.0000   1.0000   1.0000   1.0000   1.0000   1.0000   1.0000   1.0000
     1.0000   1.0000   1.0000   1.0000   1.0000   1.0000   1.0000   1.0000
     1.0000   1.0000   1.0000   1.0000   1.0000   1.0000   1.0000   1.0000
     1.0000   1.0000   1.0000   1.0000  -0.0000  -0.0000  -0.0000  -0.0000
    -0.0000  -0.0000

          k = 0.0000 0.0825 0.0594 (  3990 PWs)   bands (ev):

   -42.0422 -42.0421 -31.3670 -31.3666 -18.5451 -18.5447 -17.6194 -17.6193
   -17.5505 -17.5505  -6.7817  -6.6561  -5.4557  -5.2898   5.4031   6.1050
     7.9689   8.0149   8.1548   8.2038   8.2423   8.6942   8.8336   8.9040
     9.1071   9.6739  13.2800  13.4716  15.4514  15.4726  15.5300  15.5481
    16.4748  16.5325

     occupation numbers 
     1.0000   1.0000   1.0000   1.0000   1.0000   1.0000   1.0000   1.0000
     1.0000   1.0000   1.0000   1.0000   1.0000   1.0000   1.0000   1.0000
     1.0000   1.0000   1.0000   1.0000   1.0000   1.0000   1.0000   1.0000
     1.0000   1.0000   1.0000   1.0000  -0.0000  -0.0000  -0.0000  -0.0000
    -0.0000  -0.0000

          k = 0.0000 0.0825 0.0792 (  3997 PWs)   bands (ev):

   -42.0422 -42.0421 -31.3670 -31.3667 -18.5451 -18.5447 -17.6194 -17.6193
   -17.5505 -17.5505  -6.7702  -6.6703  -5.4375  -5.3054   5.4580   6.0083
     7.9732   8.0100   8.2073   8.2380   8.2656   8.6814   8.8410   8.8972
     9.1276   9.5834  13.3081  13.4592  15.4593  15.4816  15.5220  15.5420
    16.4812  16.5272

     occupation numbers 
     1.0000   1.0000   1.0000   1.0000   1.0000   1.0000   1.0000   1.0000
     1.0000   1.0000   1.0000   1.0000   1.0000   1.0000   1.0000   1.0000
     1.0000   1.0000   1.0000   1.0000   1.0000   1.0000   1.0000   1.0000
     1.0000   1.0000   1.0000   1.0000  -0.0000  -0.0000  -0.0000  -0.0000
    -0.0000  -0.0000

          k = 0.0000 0.0825 0.0990 (  4001 PWs)   bands (ev):

   -42.0422 -42.0422 -31.3670 -31.3667 -18.5450 -18.5448 -17.6194 -17.6193
   -17.5505 -17.5505  -6.7561  -6.6867  -5.4162  -5.3244   5.5269   5.9045
     7.9785   8.0041   8.2117   8.2330   8.3787   8.6588   8.8499   8.8889
     9.1615   9.4818  13.3386  13.4426  15.4688  15.4920  15.5124  15.5341
    16.4887  16.5207

     occupation numbers 
     1.0000   1.0000   1.0000   1.0000   1.0000   1.0000   1.0000   1.0000
     1.0000   1.0000   1.0000   1.0000   1.0000   1.0000   1.0000   1.0000
     1.0000   1.0000   1.0000   1.0000   1.0000   1.0000   1.0000   1.0000
     1.0000   1.0000   1.0000   1.0000  -0.0000  -0.0000  -0.0000  -0.0000
    -0.0000  -0.0000

          k = 0.0000 0.0825 0.1188 (  4008 PWs)   bands (ev):

   -42.0422 -42.0422 -31.3669 -31.3668 -18.5449 -18.5448 -17.6194 -17.6193
   -17.5505 -17.5505  -6.7400  -6.7045  -5.3930  -5.3460   5.6083   5.8002
     7.9846   7.9977   8.2166   8.2276   8.4811   8.6212   8.8596   8.8796
     9.2136   9.3794  13.3689  13.4218  15.4794  15.5018  15.5032  15.5248
    16.4970  16.5133

     occupation numbers 
     1.0000   1.0000   1.0000   1.0000   1.0000   1.0000   1.0000   1.0000
     1.0000   1.0000   1.0000   1.0000   1.0000   1.0000   1.0000   1.0000
     1.0000   1.0000   1.0000   1.0000   1.0000   1.0000   1.0000   1.0000
     1.0000   1.0000   1.0000   1.0000  -0.0000  -0.0000  -0.0000  -0.0000
    -0.0000  -0.0000

          k = 0.0000 0.0825-0.1386 (  3992 PWs)   bands (ev):

   -42.0422 -42.0422 -31.3668 -31.3668 -18.5449 -18.5449 -17.6194 -17.6193
   -17.5505 -17.5505  -6.7225  -6.7225  -5.3692  -5.3692   5.7003   5.7004
     7.9911   7.9911   8.2220   8.2221   8.5631   8.5631   8.8697   8.8697
     9.2872   9.2872  13.3971  13.3971  15.4906  15.4906  15.5143  15.5144
    16.5052  16.5053

     occupation numbers 
     1.0000   1.0000   1.0000   1.0000   1.0000   1.0000   1.0000   1.0000
     1.0000   1.0000   1.0000   1.0000   1.0000   1.0000   1.0000   1.0000
     1.0000   1.0000   1.0000   1.0000   1.0000   1.0000   1.0000   1.0000
     1.0000   1.0000   1.0000   1.0000  -0.0000  -0.0000  -0.0000  -0.0000
    -0.0000  -0.0000

          k = 0.0000 0.1650 0.0000 (  3969 PWs)   bands (ev):

   -42.0127 -42.0127 -31.3625 -31.3621 -18.4866 -18.4858 -17.8518 -17.8516
   -17.5958 -17.5957  -6.6066  -6.4416  -5.5415  -5.3396   5.5310   6.4599
     7.5706   7.5972   7.7032   8.2799   8.3554   8.4418   8.5828   8.7061
     9.1847   9.8194  12.9596  13.0161  15.5167  15.5947  15.7246  15.8557
    16.2773  16.3434

     occupation numbers 
     1.0000   1.0000   1.0000   1.0000   1.0000   1.0000   1.0000   1.0000
     1.0000   1.0000   1.0000   1.0000   1.0000   1.0000   1.0000   1.0000
     1.0000   1.0000   1.0000   1.0000   1.0000   1.0000   1.0000   1.0000
     1.0000   1.0000   1.0000   1.0000  -0.0000  -0.0000  -0.0000  -0.0000
    -0.0000  -0.0000

          k = 0.0000 0.1650 0.0198 (  3978 PWs)   bands (ev):

   -42.0127 -42.0127 -31.3626 -31.3621 -18.4865 -18.4858 -17.8518 -17.8516
   -17.5958 -17.5957  -6.6048  -6.4441  -5.5385  -5.3418   5.5386   6.4379
     7.5696   7.6159   7.7071   8.2784   8.3561   8.4398   8.5852   8.7049
     9.1884   9.8078  12.9607  13.0160  15.5216  15.5963  15.7229  15.8515
    16.2793  16.3434

     occupation numbers 
     1.0000   1.0000   1.0000   1.0000   1.0000   1.0000   1.0000   1.0000
     1.0000   1.0000   1.0000   1.0000   1.0000   1.0000   1.0000   1.0000
     1.0000   1.0000   1.0000   1.0000   1.0000   1.0000   1.0000   1.0000
     1.0000   1.0000   1.0000   1.0000  -0.0000  -0.0000  -0.0000  -0.0000
    -0.0000  -0.0000

          k = 0.0000 0.1650 0.0396 (  3993 PWs)   bands (ev):

   -42.0128 -42.0127 -31.3625 -31.3622 -18.4865 -18.4858 -17.8517 -17.8516
   -17.5958 -17.5957  -6.5996  -6.4514  -5.5299  -5.3484   5.5614   6.3774
     7.5715   7.6472   7.7327   8.2735   8.3582   8.4343   8.5920   8.7013
     9.1999   9.7739  12.9639  13.0155  15.5356  15.6010  15.7180  15.8395
    16.2850  16.3434

     occupation numbers 
     1.0000   1.0000   1.0000   1.0000   1.0000   1.0000   1.0000   1.0000
     1.0000   1.0000   1.0000   1.0000   1.0000   1.0000   1.0000   1.0000
     1.0000   1.0000   1.0000   1.0000   1.0000   1.0000   1.0000   1.0000
     1.0000   1.0000   1.0000   1.0000  -0.0000  -0.0000  -0.0000  -0.0000
    -0.0000  -0.0000

          k = 0.0000 0.1650 0.0594 (  3989 PWs)   bands (ev):

   -42.0128 -42.0127 -31.3625 -31.3622 -18.4865 -18.4859 -17.8517 -17.8516
   -17.5958 -17.5957  -6.5911  -6.4629  -5.5162  -5.3591   5.5993   6.2909
     7.5768   7.6563   7.8008   8.2639   8.3618   8.4263   8.6022   8.6956
     9.2204   9.7206  12.9690  13.0143  15.5582  15.6086  15.7101  15.8203
    16.2935  16.3431

     occupation numbers 
     1.0000   1.0000   1.0000   1.0000   1.0000   1.0000   1.0000   1.0000
     1.0000   1.0000   1.0000   1.0000   1.0000   1.0000   1.0000   1.0000
     1.0000   1.0000   1.0000   1.0000   1.0000   1.0000   1.0000   1.0000
     1.0000   1.0000   1.0000   1.0000  -0.0000  -0.0000  -0.0000  -0.0000
    -0.0000  -0.0000

          k = 0.0000 0.1650 0.0792 (  3992 PWs)   bands (ev):

   -42.0128 -42.0127 -31.3625 -31.3622 -18.4864 -18.4859 -17.8517 -17.8516
   -17.5958 -17.5957  -6.5796  -6.4777  -5.4985  -5.3736   5.6516   6.1907
     7.5846   7.6514   7.8900   8.2475   8.3666   8.4170   8.6144   8.6878
     9.2515   9.6526  12.9755  13.0122  15.5874  15.6187  15.6997  15.7951
    16.3035  16.3422

     occupation numbers 
     1.0000   1.0000   1.0000   1.0000   1.0000   1.0000   1.0000   1.0000
     1.0000   1.0000   1.0000   1.0000   1.0000   1.0000   1.0000   1.0000
     1.0000   1.0000   1.0000   1.0000   1.0000   1.0000   1.0000   1.0000
     1.0000   1.0000   1.0000   1.0000  -0.0000  -0.0000  -0.0000  -0.0000
    -0.0000  -0.0000

          k = 0.0000 0.1650 0.0990 (  3994 PWs)   bands (ev):

   -42.0128 -42.0127 -31.3625 -31.3623 -18.4863 -18.4860 -17.8517 -17.8517
   -17.5958 -17.5957  -6.5655  -6.4948  -5.4780  -5.3913   5.7174   6.0858
     7.5944   7.6417   7.9807   8.2217   8.3727   8.4072   8.6277   8.6782
     9.2947   9.5753  12.9828  13.0087  15.6212  15.6309  15.6872  15.7650
    16.3136  16.3400

     occupation numbers 
     1.0000   1.0000   1.0000   1.0000   1.0000   1.0000   1.0000   1.0000
     1.0000   1.0000   1.0000   1.0000   1.0000   1.0000   1.0000   1.0000
     1.0000   1.0000   1.0000   1.0000   1.0000   1.0000   1.0000   1.0000
     1.0000   1.0000   1.0000   1.0000  -0.0000  -0.0000  -0.0000  -0.0000
    -0.0000  -0.0000

          k = 0.0000 0.1650 0.1188 (  3993 PWs)   bands (ev):

   -42.0127 -42.0127 -31.3624 -31.3623 -18.4862 -18.4861 -17.8517 -17.8517
   -17.5958 -17.5957  -6.5492  -6.5130  -5.4558  -5.4114   5.7957   5.9824
     7.6056   7.6300   8.0627   8.1837   8.3800   8.3975   8.6413   8.6670
     9.3508   9.4953  12.9903  13.0037  15.6445  15.6577  15.6734  15.7312
    16.3228  16.3362

     occupation numbers 
     1.0000   1.0000   1.0000   1.0000   1.0000   1.0000   1.0000   1.0000
     1.0000   1.0000   1.0000   1.0000   1.0000   1.0000   1.0000   1.0000
     1.0000   1.0000   1.0000   1.0000   1.0000   1.0000   1.0000   1.0000
     1.0000   1.0000   1.0000   1.0000  -0.0000  -0.0000  -0.0000  -0.0000
    -0.0000  -0.0000

          k = 0.0000 0.1650-0.1386 (  3988 PWs)   bands (ev):

   -42.0127 -42.0127 -31.3624 -31.3624 -18.4862 -18.4861 -17.8517 -17.8517
   -17.5958 -17.5957  -6.5315  -6.5314  -5.4333  -5.4333   5.8847   5.8847
     7.6177   7.6177   8.1310   8.1310   8.3883   8.3883   8.6546   8.6546
     9.4187   9.4188  12.9975  12.9975  15.6589  15.6589  15.6949  15.6950
    16.3305  16.3305

     occupation numbers 
     1.0000   1.0000   1.0000   1.0000   1.0000   1.0000   1.0000   1.0000
     1.0000   1.0000   1.0000   1.0000   1.0000   1.0000   1.0000   1.0000
     1.0000   1.0000   1.0000   1.0000   1.0000   1.0000   1.0000   1.0000
     1.0000   1.0000   1.0000   1.0000  -0.0000  -0.0000  -0.0000  -0.0000
    -0.0000  -0.0000

          k = 0.0000 0.2474 0.0000 (  3982 PWs)   bands (ev):

   -41.9699 -41.9698 -31.3560 -31.3557 -18.4003 -18.3992 -18.1733 -18.1730
   -17.6604 -17.6604  -6.3425  -6.1755  -5.6305  -5.4465   5.6926   6.4774
     7.1953   7.2379   7.5699   7.8245   8.2719   8.4252   8.5630   8.6976
     9.1464   9.6731  12.4448  12.6607  15.7566  15.9142  16.0598  16.1714
    16.2166  16.3674

     occupation numbers 
     1.0000   1.0000   1.0000   1.0000   1.0000   1.0000   1.0000   1.0000
     1.0000   1.0000   1.0000   1.0000   1.0000   1.0000   1.0000   1.0000
     1.0000   1.0000   1.0000   1.0000   1.0000   1.0000   1.0000   1.0000
     1.0000   1.0000   1.0000   1.0000  -0.0000  -0.0000  -0.0000  -0.0000
    -0.0000  -0.0000

          k = 0.0000 0.2474 0.0198 (  3979 PWs)   bands (ev):

   -41.9699 -41.9698 -31.3560 -31.3557 -18.4003 -18.3993 -18.1733 -18.1730
   -17.6604 -17.6604  -6.3408  -6.1783  -5.6275  -5.4484   5.6991   6.4587
     7.1951   7.2481   7.5744   7.8254   8.2732   8.4215   8.5665   8.6966
     9.1505   9.6645  12.4475  12.6580  15.7607  15.9159  16.0578  16.1504
    16.2354  16.3680

     occupation numbers 
     1.0000   1.0000   1.0000   1.0000   1.0000   1.0000   1.0000   1.0000
     1.0000   1.0000   1.0000   1.0000   1.0000   1.0000   1.0000   1.0000
     1.0000   1.0000   1.0000   1.0000   1.0000   1.0000   1.0000   1.0000
     1.0000   1.0000   1.0000   1.0000  -0.0000  -0.0000  -0.0000  -0.0000
    -0.0000  -0.0000

          k = 0.0000 0.2474 0.0396 (  3984 PWs)   bands (ev):

   -41.9699 -41.9698 -31.3560 -31.3557 -18.4002 -18.3993 -18.1733 -18.1730
   -17.6604 -17.6604  -6.3358  -6.1863  -5.6189  -5.4540   5.7185   6.4075
     7.1977   7.2692   7.5895   7.8275   8.2771   8.4114   8.5759   8.6934
     9.1631   9.6395  12.4555  12.6500  15.7724  15.9210  16.0522  16.1146
    16.2644  16.3695

     occupation numbers 
     1.0000   1.0000   1.0000   1.0000   1.0000   1.0000   1.0000   1.0000
     1.0000   1.0000   1.0000   1.0000   1.0000   1.0000   1.0000   1.0000
     1.0000   1.0000   1.0000   1.0000   1.0000   1.0000   1.0000   1.0000
     1.0000   1.0000   1.0000   1.0000  -0.0000  -0.0000  -0.0000  -0.0000
    -0.0000  -0.0000

          k = 0.0000 0.2474 0.0594 (  3984 PWs)   bands (ev):

   -41.9699 -41.9698 -31.3560 -31.3557 -18.4002 -18.3994 -18.1732 -18.1730
   -17.6604 -17.6604  -6.3277  -6.1988  -5.6054  -5.4632   5.7506   6.3346
     7.2047   7.2868   7.6177   7.8289   8.2835   8.3972   8.5890   8.6881
     9.1848   9.5999  12.4684  12.6371  15.7912  15.9293  16.0431  16.0758
    16.2919  16.3713

     occupation numbers 
     1.0000   1.0000   1.0000   1.0000   1.0000   1.0000   1.0000   1.0000
     1.0000   1.0000   1.0000   1.0000   1.0000   1.0000   1.0000   1.0000
     1.0000   1.0000   1.0000   1.0000   1.0000   1.0000   1.0000   1.0000
     1.0000   1.0000   1.0000   1.0000  -0.0000  -0.0000  -0.0000  -0.0000
    -0.0000  -0.0000

          k = 0.0000 0.2474 0.0792 (  3979 PWs)   bands (ev):

   -41.9699 -41.9698 -31.3559 -31.3558 -18.4001 -18.3994 -18.1732 -18.1731
   -17.6604 -17.6604  -6.3166  -6.2145  -5.5884  -5.4756   5.7949   6.2501
     7.2156   7.2933   7.6573   7.8271   8.2923   8.3809   8.6039   8.6807
     9.2160   9.5486  12.4855  12.6200  15.8162  15.9404  16.0311  16.0359
    16.3160  16.3726

     occupation numbers 
     1.0000   1.0000   1.0000   1.0000   1.0000   1.0000   1.0000   1.0000
     1.0000   1.0000   1.0000   1.0000   1.0000   1.0000   1.0000   1.0000
     1.0000   1.0000   1.0000   1.0000   1.0000   1.0000   1.0000   1.0000
     1.0000   1.0000   1.0000   1.0000  -0.0000  -0.0000  -0.0000  -0.0000
    -0.0000  -0.0000

          k = 0.0000 0.2474 0.0990 (  3982 PWs)   bands (ev):

   -41.9699 -41.9698 -31.3559 -31.3558 -18.4000 -18.3995 -18.1732 -18.1731
   -17.6604 -17.6604  -6.3029  -6.2322  -5.5690  -5.4910   5.8505   6.1617
     7.2295   7.2888   7.7018   7.8195   8.3033   8.3638   8.6191   8.6715
     9.2570   9.4895  12.5060  12.5995  15.8462  15.9539  15.9956  16.0170
    16.3360  16.3721

     occupation numbers 
     1.0000   1.0000   1.0000   1.0000   1.0000   1.0000   1.0000   1.0000
     1.0000   1.0000   1.0000   1.0000   1.0000   1.0000   1.0000   1.0000
     1.0000   1.0000   1.0000   1.0000   1.0000   1.0000   1.0000   1.0000
     1.0000   1.0000   1.0000   1.0000  -0.0000  -0.0000  -0.0000  -0.0000
    -0.0000  -0.0000

          k = 0.0000 0.2474 0.1188 (  3984 PWs)   bands (ev):

   -41.9699 -41.9698 -31.3559 -31.3558 -18.3999 -18.3996 -18.1732 -18.1731
   -17.6604 -17.6604  -6.2870  -6.2509  -5.5486  -5.5087   5.9166   6.0744
     7.2453   7.2772   7.7439   7.8038   8.3163   8.3470   8.6340   8.6605
     9.3071   9.4267  12.5288  12.5767  15.8802  15.9558  15.9690  16.0013
    16.3514  16.3690

     occupation numbers 
     1.0000   1.0000   1.0000   1.0000   1.0000   1.0000   1.0000   1.0000
     1.0000   1.0000   1.0000   1.0000   1.0000   1.0000   1.0000   1.0000
     1.0000   1.0000   1.0000   1.0000   1.0000   1.0000   1.0000   1.0000
     1.0000   1.0000   1.0000   1.0000  -0.0000  -0.0000  -0.0000  -0.0000
    -0.0000  -0.0000

          k = 0.0000 0.2474-0.1386 (  3986 PWs)   bands (ev):

   -41.9699 -41.9698 -31.3559 -31.3559 -18.3998 -18.3997 -18.1732 -18.1731
   -17.6604 -17.6604  -6.2694  -6.2694  -5.5282  -5.5281   5.9919   5.9919
     7.2618   7.2618   7.7786   7.7786   8.3309   8.3310   8.6479   8.6479
     9.3646   9.3647  12.5527  12.5528  15.9170  15.9170  15.9850  15.9851
    16.3623  16.3623

     occupation numbers 
     1.0000   1.0000   1.0000   1.0000   1.0000   1.0000   1.0000   1.0000
     1.0000   1.0000   1.0000   1.0000   1.0000   1.0000   1.0000   1.0000
     1.0000   1.0000   1.0000   1.0000   1.0000   1.0000   1.0000   1.0000
     1.0000   1.0000   1.0000   1.0000  -0.0000  -0.0000  -0.0000  -0.0000
    -0.0000  -0.0000

          k = 0.0000 0.3299 0.0000 (  3970 PWs)   bands (ev):

   -41.9218 -41.9217 -31.3487 -31.3486 -18.5131 -18.5126 -18.3023 -18.3010
   -17.7312 -17.7311  -6.0614  -5.8984  -5.7325  -5.5713   5.6846   6.2239
     6.8194   7.0602   7.4161   7.6925   7.9623   8.1384   8.7607   8.9495
     9.0151   9.4394  12.1425  12.4059  16.1562  16.2593  16.4238  16.4879
    16.5620  16.5873

     occupation numbers 
     1.0000   1.0000   1.0000   1.0000   1.0000   1.0000   1.0000   1.0000
     1.0000   1.0000   1.0000   1.0000   1.0000   1.0000   1.0000   1.0000
     1.0000   1.0000   1.0000   1.0000   1.0000   1.0000   1.0000   1.0000
     1.0000   1.0000   1.0000   1.0000  -0.0000  -0.0000  -0.0000  -0.0000
    -0.0000  -0.0000

          k = 0.0000 0.3299 0.0198 (  3971 PWs)   bands (ev):

   -41.9218 -41.9217 -31.3487 -31.3486 -18.5130 -18.5126 -18.3023 -18.3010
   -17.7312 -17.7311  -6.0600  -5.9023  -5.7286  -5.5726   5.6895   6.2129
     6.8245   7.0580   7.4217   7.6912   7.9641   8.1355   8.7637   8.9475
     9.0193   9.4331  12.1462  12.4029  16.1558  16.2556  16.4253  16.4913
    16.5600  16.5875

     occupation numbers 
     1.0000   1.0000   1.0000   1.0000   1.0000   1.0000   1.0000   1.0000
     1.0000   1.0000   1.0000   1.0000   1.0000   1.0000   1.0000   1.0000
     1.0000   1.0000   1.0000   1.0000   1.0000   1.0000   1.0000   1.0000
     1.0000   1.0000   1.0000   1.0000  -0.0000  -0.0000  -0.0000  -0.0000
    -0.0000  -0.0000

          k = 0.0000 0.3299 0.0396 (  3974 PWs)   bands (ev):

   -41.9218 -41.9217 -31.3487 -31.3486 -18.5130 -18.5127 -18.3022 -18.3010
   -17.7312 -17.7311  -6.0559  -5.9130  -5.7180  -5.5767   5.7039   6.1822
     6.8384   7.0512   7.4382   7.6871   7.9694   8.1272   8.7725   8.9417
     9.0321   9.4149  12.1568  12.3940  16.1549  16.2457  16.4300  16.5008
    16.5544  16.5878

     occupation numbers 
     1.0000   1.0000   1.0000   1.0000   1.0000   1.0000   1.0000   1.0000
     1.0000   1.0000   1.0000   1.0000   1.0000   1.0000   1.0000   1.0000
     1.0000   1.0000   1.0000   1.0000   1.0000   1.0000   1.0000   1.0000
     1.0000   1.0000   1.0000   1.0000  -0.0000  -0.0000  -0.0000  -0.0000
    -0.0000  -0.0000

          k = 0.0000 0.3299 0.0594 (  3962 PWs)   bands (ev):

   -41.9218 -41.9217 -31.3487 -31.3486 -18.5130 -18.5127 -18.3021 -18.3011
   -17.7312 -17.7311  -6.0491  -5.9282  -5.7029  -5.5833   5.7277   6.1366
     6.8586   7.0397   7.4638   7.6794   7.9781   8.1143   8.7861   8.9323
     9.0533   9.3859  12.1738  12.3795  16.1543  16.2317  16.4376  16.5142
    16.5455  16.5877

     occupation numbers 
     1.0000   1.0000   1.0000   1.0000   1.0000   1.0000   1.0000   1.0000
     1.0000   1.0000   1.0000   1.0000   1.0000   1.0000   1.0000   1.0000
     1.0000   1.0000   1.0000   1.0000   1.0000   1.0000   1.0000   1.0000
     1.0000   1.0000   1.0000   1.0000  -0.0000  -0.0000  -0.0000  -0.0000
    -0.0000  -0.0000

          k = 0.0000 0.3299 0.0792 (  3964 PWs)   bands (ev):

[...]
   -18.0906 -18.0898  -5.9045  -5.8427  -5.4219  -5.3461   5.8209   5.8595
     6.2442   6.5110   6.8637   7.4588   7.6764   8.1651   8.2835   8.4674
     8.6903   9.2315  12.5868  12.7350  16.0867  16.1815  17.2425  17.6610
    17.7753  18.1034

     occupation numbers 
     1.0000   1.0000   1.0000   1.0000   1.0000   1.0000   1.0000   1.0000
     1.0000   1.0000   1.0000   1.0000   1.0000   1.0000   1.0000   1.0000
     1.0000   1.0000   1.0000   1.0000   1.0000   1.0000   1.0000   1.0000
     1.0000   1.0000   1.0000   1.0000  -0.0000  -0.0000  -0.0000  -0.0000
    -0.0000  -0.0000

          k = 0.2143 0.5361 0.0396 (  3983 PWs)   bands (ev):

   -41.8201 -41.8200 -31.3337 -31.3337 -18.8814 -18.8810 -18.2215 -18.2214
   -18.0905 -18.0898  -5.9025  -5.8455  -5.4186  -5.3487   5.8219   5.8574
     6.2563   6.5111   6.8592   7.3729   7.7622   8.1645   8.2823   8.4738
     8.6988   9.2111  12.5930  12.7299  16.0901  16.1778  17.2506  17.6101
    17.8212  18.1031

     occupation numbers 
     1.0000   1.0000   1.0000   1.0000   1.0000   1.0000   1.0000   1.0000
     1.0000   1.0000   1.0000   1.0000   1.0000   1.0000   1.0000   1.0000
     1.0000   1.0000   1.0000   1.0000   1.0000   1.0000   1.0000   1.0000
     1.0000   1.0000   1.0000   1.0000  -0.0000  -0.0000  -0.0000  -0.0000
    -0.0000  -0.0000

          k = 0.2143 0.5361 0.0594 (  3981 PWs)   bands (ev):

   -41.8201 -41.8200 -31.3337 -31.3337 -18.8813 -18.8811 -18.2215 -18.2214
   -18.0905 -18.0898  -5.8992  -5.8498  -5.4134  -5.3528   5.8235   5.8540
     6.2760   6.5073   6.8578   7.2851   7.8493   8.1630   8.2825   8.4724
     8.7213   9.1780  12.6029  12.7217  16.0956  16.1719  17.2641  17.5581
    17.8656  18.0589

     occupation numbers 
     1.0000   1.0000   1.0000   1.0000   1.0000   1.0000   1.0000   1.0000
     1.0000   1.0000   1.0000   1.0000   1.0000   1.0000   1.0000   1.0000
     1.0000   1.0000   1.0000   1.0000   1.0000   1.0000   1.0000   1.0000
     1.0000   1.0000   1.0000   1.0000  -0.0000  -0.0000  -0.0000  -0.0000
    -0.0000  -0.0000

          k = 0.2143 0.5361 0.0792 (  3986 PWs)   bands (ev):

   -41.8201 -41.8200 -31.3337 -31.3337 -18.8813 -18.8811 -18.2215 -18.2214
   -18.0904 -18.0899  -5.8947  -5.8554  -5.4067  -5.3585   5.8258   5.8499
     6.3023   6.4956   6.8663   7.1999   7.9319   8.1592   8.2864   8.4558
     8.7622   9.1335  12.6159  12.7105  16.1031  16.1640  17.2832  17.5072
    17.9065  18.0500

     occupation numbers 
     1.0000   1.0000   1.0000   1.0000   1.0000   1.0000   1.0000   1.0000
     1.0000   1.0000   1.0000   1.0000   1.0000   1.0000   1.0000   1.0000
     1.0000   1.0000   1.0000   1.0000   1.0000   1.0000   1.0000   1.0000
     1.0000   1.0000   1.0000   1.0000  -0.0000  -0.0000  -0.0000  -0.0000
    -0.0000  -0.0000

          k = 0.2143 0.5361 0.0990 (  3989 PWs)   bands (ev):

   -41.8201 -41.8200 -31.3337 -31.3337 -18.8813 -18.8811 -18.2215 -18.2214
   -18.0904 -18.0900  -5.8892  -5.8619  -5.3988  -5.3653   5.8287   5.8454
     6.3343   6.4739   6.8896   7.1196   8.0056   8.1512   8.2969   8.4251
     8.8181   9.0792  12.6311  12.6969  16.1121  16.1546  17.3078  17.4587
    17.9432  18.0380

     occupation numbers 
     1.0000   1.0000   1.0000   1.0000   1.0000   1.0000   1.0000   1.0000
     1.0000   1.0000   1.0000   1.0000   1.0000   1.0000   1.0000   1.0000
     1.0000   1.0000   1.0000   1.0000   1.0000   1.0000   1.0000   1.0000
     1.0000   1.0000   1.0000   1.0000  -0.0000  -0.0000  -0.0000  -0.0000
    -0.0000  -0.0000

          k = 0.2143 0.5361 0.1188 (  3980 PWs)   bands (ev):

   -41.8201 -41.8200 -31.3337 -31.3337 -18.8812 -18.8812 -18.2215 -18.2215
   -18.0903 -18.0901  -5.8829  -5.8689  -5.3903  -5.3731   5.8323   5.8408
     6.3701   6.4433   6.9286   7.0462   8.0658   8.1359   8.3171   8.3866
     8.8829   9.0174  12.6477  12.6815  16.1223  16.1441  17.3380  17.4139
    17.9749  18.0220

     occupation numbers 
     1.0000   1.0000   1.0000   1.0000   1.0000   1.0000   1.0000   1.0000
     1.0000   1.0000   1.0000   1.0000   1.0000   1.0000   1.0000   1.0000
     1.0000   1.0000   1.0000   1.0000   1.0000   1.0000   1.0000   1.0000
     1.0000   1.0000   1.0000   1.0000  -0.0000  -0.0000  -0.0000  -0.0000
    -0.0000  -0.0000

          k = 0.2143 0.5361-0.1386 (  3980 PWs)   bands (ev):

   -41.8201 -41.8200 -31.3337 -31.3337 -18.8812 -18.8812 -18.2215 -18.2215
   -18.0902 -18.0901  -5.8761  -5.8760  -5.3816  -5.3816   5.8363   5.8363
     6.4074   6.4075   6.9817   6.9817   8.1089   8.1089   8.3482   8.3482
     8.9508   8.9508  12.6648  12.6648  16.1332  16.1332  17.3734  17.3735
    18.0013  18.0014

     occupation numbers 
     1.0000   1.0000   1.0000   1.0000   1.0000   1.0000   1.0000   1.0000
     1.0000   1.0000   1.0000   1.0000   1.0000   1.0000   1.0000   1.0000
     1.0000   1.0000   1.0000   1.0000   1.0000   1.0000   1.0000   1.0000
     1.0000   1.0000   1.0000   1.0000  -0.0000  -0.0000  -0.0000  -0.0000
    -0.0000  -0.0000

          k = 0.2857 0.4949 0.0000 (  3983 PWs)   bands (ev):

   -41.8177 -41.8176 -31.3334 -31.3333 -18.8109 -18.8107 -18.3198 -18.3196
   -18.0856 -18.0849  -5.8992  -5.8485  -5.3942  -5.3305   5.7409   5.7501
     6.3483   6.6505   7.1926   7.5414   7.5536   7.9371   8.2113   8.3172
     8.7037   9.2463  12.6886  12.7475  15.8456  15.9791  17.5302  17.7182
    17.8794  17.9718

     occupation numbers 
     1.0000   1.0000   1.0000   1.0000   1.0000   1.0000   1.0000   1.0000
     1.0000   1.0000   1.0000   1.0000   1.0000   1.0000   1.0000   1.0000
     1.0000   1.0000   1.0000   1.0000   1.0000   1.0000   1.0000   1.0000
     1.0000   1.0000   1.0000   1.0000  -0.0000  -0.0000  -0.0000  -0.0000
    -0.0000  -0.0000

          k = 0.2857 0.4949 0.0198 (  3985 PWs)   bands (ev):

   -41.8177 -41.8176 -31.3334 -31.3333 -18.8108 -18.8107 -18.3198 -18.3196
   -18.0856 -18.0850  -5.8987  -5.8493  -5.3933  -5.3313   5.7410   5.7500
     6.3528   6.6514   7.1762   7.5247   7.5734   7.9349   8.2146   8.3358
     8.6994   9.2385  12.6895  12.7469  15.8473  15.9775  17.5318  17.7138
    17.8825  17.9721

     occupation numbers 
     1.0000   1.0000   1.0000   1.0000   1.0000   1.0000   1.0000   1.0000
     1.0000   1.0000   1.0000   1.0000   1.0000   1.0000   1.0000   1.0000
     1.0000   1.0000   1.0000   1.0000   1.0000   1.0000   1.0000   1.0000
     1.0000   1.0000   1.0000   1.0000  -0.0000  -0.0000  -0.0000  -0.0000
    -0.0000  -0.0000

          k = 0.2857 0.4949 0.0396 (  3977 PWs)   bands (ev):

   -41.8177 -41.8176 -31.3333 -31.3333 -18.8108 -18.8107 -18.3198 -18.3196
   -18.0855 -18.0850  -5.8970  -5.8514  -5.3907  -5.3334   5.7412   5.7495
     6.3662   6.6530   7.1386   7.4794   7.6220   7.9294   8.2249   8.3844
     8.6884   9.2151  12.6921  12.7452  15.8521  15.9725  17.5367  17.7017
    17.8906  17.9708

     occupation numbers 
     1.0000   1.0000   1.0000   1.0000   1.0000   1.0000   1.0000   1.0000
     1.0000   1.0000   1.0000   1.0000   1.0000   1.0000   1.0000   1.0000
     1.0000   1.0000   1.0000   1.0000   1.0000   1.0000   1.0000   1.0000
     1.0000   1.0000   1.0000   1.0000  -0.0000  -0.0000  -0.0000  -0.0000
    -0.0000  -0.0000

          k = 0.2857 0.4949 0.0594 (  3981 PWs)   bands (ev):

   -41.8177 -41.8176 -31.3333 -31.3333 -18.8108 -18.8107 -18.3197 -18.3196
   -18.0855 -18.0850  -5.8943  -5.8548  -5.3866  -5.3369   5.7416   5.7488
     6.3880   6.6512   7.0999   7.4155   7.6816   7.9222   8.2431   8.4439
     8.6780   9.1769  12.6963  12.7424  15.8600  15.9646  17.5446  17.6845
    17.9015  17.9690

     occupation numbers 
     1.0000   1.0000   1.0000   1.0000   1.0000   1.0000   1.0000   1.0000
     1.0000   1.0000   1.0000   1.0000   1.0000   1.0000   1.0000   1.0000
     1.0000   1.0000   1.0000   1.0000   1.0000   1.0000   1.0000   1.0000
     1.0000   1.0000   1.0000   1.0000  -0.0000  -0.0000  -0.0000  -0.0000
    -0.0000  -0.0000

          k = 0.2857 0.4949 0.0792 (  3983 PWs)   bands (ev):

   -41.8177 -41.8176 -31.3333 -31.3333 -18.8108 -18.8107 -18.3197 -18.3196
   -18.0855 -18.0851  -5.8906  -5.8592  -5.3811  -5.3416   5.7422   5.7479
     6.4177   6.6407   7.0755   7.3431   7.7405   7.9134   8.2701   8.4844
     8.6890   9.1250  12.7017  12.7385  15.8704  15.9539  17.5555  17.6645
    17.9136  17.9660

     occupation numbers 
     1.0000   1.0000   1.0000   1.0000   1.0000   1.0000   1.0000   1.0000
     1.0000   1.0000   1.0000   1.0000   1.0000   1.0000   1.0000   1.0000
     1.0000   1.0000   1.0000   1.0000   1.0000   1.0000   1.0000   1.0000
     1.0000   1.0000   1.0000   1.0000  -0.0000  -0.0000  -0.0000  -0.0000
    -0.0000  -0.0000

          k = 0.2857 0.4949 0.0990 (  3981 PWs)   bands (ev):

   -41.8177 -41.8176 -31.3333 -31.3333 -18.8108 -18.8108 -18.3197 -18.3196
   -18.0854 -18.0851  -5.8862  -5.8643  -5.3748  -5.3473   5.7429   5.7468
     6.4541   6.6172   7.0744   7.2696   7.7919   7.9019   8.3063   8.4804
     8.7417   9.0607  12.7080  12.7336  15.8830  15.9412  17.5690  17.6435
    17.9255  17.9611

     occupation numbers 
     1.0000   1.0000   1.0000   1.0000   1.0000   1.0000   1.0000   1.0000
     1.0000   1.0000   1.0000   1.0000   1.0000   1.0000   1.0000   1.0000
     1.0000   1.0000   1.0000   1.0000   1.0000   1.0000   1.0000   1.0000
     1.0000   1.0000   1.0000   1.0000  -0.0000  -0.0000  -0.0000  -0.0000
    -0.0000  -0.0000

          k = 0.2857 0.4949 0.1188 (  3980 PWs)   bands (ev):

   -41.8177 -41.8176 -31.3333 -31.3333 -18.8108 -18.8108 -18.3197 -18.3196
   -18.0853 -18.0852  -5.8811  -5.8699  -5.3678  -5.3537   5.7437   5.7458
     6.4956   6.5819   7.0980   7.2010   7.8331   7.8861   8.3505   8.4454
     8.8200   8.9863  12.7147  12.7278  15.8972  15.9270  17.5850  17.6227
    17.9365  17.9543

     occupation numbers 
     1.0000   1.0000   1.0000   1.0000   1.0000   1.0000   1.0000   1.0000
     1.0000   1.0000   1.0000   1.0000   1.0000   1.0000   1.0000   1.0000
     1.0000   1.0000   1.0000   1.0000   1.0000   1.0000   1.0000   1.0000
     1.0000   1.0000   1.0000   1.0000  -0.0000  -0.0000  -0.0000  -0.0000
    -0.0000  -0.0000

          k = 0.2857 0.4949-0.1386 (  3980 PWs)   bands (ev):

   -41.8177 -41.8176 -31.3333 -31.3333 -18.8108 -18.8108 -18.3197 -18.3196
   -18.0853 -18.0852  -5.8756  -5.8755  -5.3607  -5.3607   5.7447   5.7447
     6.5395   6.5396   7.1420   7.1420   7.8639   7.8639   8.3988   8.3988
     8.9046   8.9046  12.7214  12.7214  15.9121  15.9121  17.6030  17.6030
    17.9459  17.9460

     occupation numbers 
     1.0000   1.0000   1.0000   1.0000   1.0000   1.0000   1.0000   1.0000
     1.0000   1.0000   1.0000   1.0000   1.0000   1.0000   1.0000   1.0000
     1.0000   1.0000   1.0000   1.0000   1.0000   1.0000   1.0000   1.0000
     1.0000   1.0000   1.0000   1.0000  -0.0000  -0.0000  -0.0000  -0.0000
    -0.0000  -0.0000

          k = 0.2857 0.5774 0.0000 (  3987 PWs)   bands (ev):

   -41.8109 -41.8108 -31.3324 -31.3323 -18.7843 -18.7841 -18.4054 -18.4051
   -18.0711 -18.0707  -5.8990  -5.8740  -5.3361  -5.3048   5.6204   5.6309
     6.6093   6.6242   7.2840   7.6073   7.7393   7.7562   7.9362   8.1312
     8.8294   9.1133  12.8757  12.9286  15.7268  15.7866  17.7252  17.7724
    17.9136  17.9700

     occupation numbers 
     1.0000   1.0000   1.0000   1.0000   1.0000   1.0000   1.0000   1.0000
     1.0000   1.0000   1.0000   1.0000   1.0000   1.0000   1.0000   1.0000
     1.0000   1.0000   1.0000   1.0000   1.0000   1.0000   1.0000   1.0000
     1.0000   1.0000   1.0000   1.0000  -0.0000  -0.0000  -0.0000  -0.0000
    -0.0000  -0.0000

          k = 0.2857 0.5774 0.0198 (  3980 PWs)   bands (ev):

   -41.8109 -41.8108 -31.3323 -31.3323 -18.7843 -18.7841 -18.4054 -18.4051
   -18.0711 -18.0707  -5.8987  -5.8743  -5.3357  -5.3052   5.6206   5.6309
     6.6139   6.6291   7.2737   7.5451   7.7395   7.8213   7.9143   8.1665
     8.8216   9.1051  12.8764  12.9279  15.7278  15.7862  17.7248  17.7702
    17.9167  17.9707

     occupation numbers 
     1.0000   1.0000   1.0000   1.0000   1.0000   1.0000   1.0000   1.0000
     1.0000   1.0000   1.0000   1.0000   1.0000   1.0000   1.0000   1.0000
     1.0000   1.0000   1.0000   1.0000   1.0000   1.0000   1.0000   1.0000
     1.0000   1.0000   1.0000   1.0000  -0.0000  -0.0000  -0.0000  -0.0000
    -0.0000  -0.0000

          k = 0.2857 0.5774 0.0396 (  3979 PWs)   bands (ev):

   -41.8108 -41.8108 -31.3323 -31.3323 -18.7843 -18.7841 -18.4054 -18.4051
   -18.0711 -18.0708  -5.8978  -5.8753  -5.3344  -5.3063   5.6209   5.6304
     6.6278   6.6434   7.2443   7.4448   7.7408   7.8746   7.9299   8.2449
     8.7985   9.0808  12.8784  12.9261  15.7308  15.7848  17.7236  17.7642
    17.9246  17.9708

     occupation numbers 
     1.0000   1.0000   1.0000   1.0000   1.0000   1.0000   1.0000   1.0000
     1.0000   1.0000   1.0000   1.0000   1.0000   1.0000   1.0000   1.0000
     1.0000   1.0000   1.0000   1.0000   1.0000   1.0000   1.0000   1.0000
     1.0000   1.0000   1.0000   1.0000  -0.0000  -0.0000  -0.0000  -0.0000
    -0.0000  -0.0000

          k = 0.2857 0.5774 0.0594 (  3974 PWs)   bands (ev):

   -41.8108 -41.8108 -31.3323 -31.3323 -18.7843 -18.7841 -18.4053 -18.4051
   -18.0710 -18.0708  -5.8964  -5.8769  -5.3325  -5.3080   5.6215   5.6298
     6.6500   6.6663   7.2008   7.3444   7.7431   7.8388   8.0441   8.3400
     8.7607   9.0408  12.8817  12.9231  15.7355  15.7824  17.7221  17.7557
    17.9360  17.9716

     occupation numbers 
     1.0000   1.0000   1.0000   1.0000   1.0000   1.0000   1.0000   1.0000
     1.0000   1.0000   1.0000   1.0000   1.0000   1.0000   1.0000   1.0000
     1.0000   1.0000   1.0000   1.0000   1.0000   1.0000   1.0000   1.0000
     1.0000   1.0000   1.0000   1.0000  -0.0000  -0.0000  -0.0000  -0.0000
    -0.0000  -0.0000

          k = 0.2857 0.5774 0.0792 (  3976 PWs)   bands (ev):

   -41.8108 -41.8108 -31.3323 -31.3323 -18.7843 -18.7842 -18.4053 -18.4051
   -18.0710 -18.0708  -5.8945  -5.8790  -5.3299  -5.3104   5.6223   5.6288
     6.6789   6.6956   7.1505   7.2509   7.7465   7.8113   8.1578   8.4411
     8.7093   8.9863  12.8861  12.9190  15.7415  15.7790  17.7208  17.7465
    17.9481  17.9726

     occupation numbers 
     1.0000   1.0000   1.0000   1.0000   1.0000   1.0000   1.0000   1.0000
     1.0000   1.0000   1.0000   1.0000   1.0000   1.0000   1.0000   1.0000
     1.0000   1.0000   1.0000   1.0000   1.0000   1.0000   1.0000   1.0000
     1.0000   1.0000   1.0000   1.0000  -0.0000  -0.0000  -0.0000  -0.0000
    -0.0000  -0.0000

          k = 0.2857 0.5774 0.0990 (  3970 PWs)   bands (ev):

   -41.8108 -41.8108 -31.3323 -31.3323 -18.7842 -18.7842 -18.4053 -18.4051
   -18.0710 -18.0708  -5.8923  -5.8814  -5.3268  -5.3133   5.6232   5.6278
     6.7113   6.7270   7.1029   7.1690   7.7511   7.7910   8.2680   8.5389
     8.6496   8.9187  12.8912  12.9141  15.7484  15.7745  17.7206  17.7378
    17.9591  17.9731

     occupation numbers 
     1.0000   1.0000   1.0000   1.0000   1.0000   1.0000   1.0000   1.0000
     1.0000   1.0000   1.0000   1.0000   1.0000   1.0000   1.0000   1.0000
     1.0000   1.0000   1.0000   1.0000   1.0000   1.0000   1.0000   1.0000
     1.0000   1.0000   1.0000   1.0000  -0.0000  -0.0000  -0.0000  -0.0000
    -0.0000  -0.0000

          k = 0.2857 0.5774 0.1188 (  3972 PWs)   bands (ev):

   -41.8108 -41.8108 -31.3323 -31.3323 -18.7842 -18.7842 -18.4053 -18.4052
   -18.0710 -18.0709  -5.8897  -5.8841  -5.3235  -5.3165   5.6243   5.6266
     6.7412   6.7518   7.0708   7.1051   7.7572   7.7762   8.3724   8.5509
     8.6614   8.8396  12.8969  12.9086  15.7555  15.7690  17.7218  17.7305
    17.9670  17.9729

     occupation numbers 
     1.0000   1.0000   1.0000   1.0000   1.0000   1.0000   1.0000   1.0000
     1.0000   1.0000   1.0000   1.0000   1.0000   1.0000   1.0000   1.0000
     1.0000   1.0000   1.0000   1.0000   1.0000   1.0000   1.0000   1.0000
     1.0000   1.0000   1.0000   1.0000  -0.0000  -0.0000  -0.0000  -0.0000
    -0.0000  -0.0000

          k = 0.2857 0.5774-0.1386 (  3972 PWs)   bands (ev):

   -41.8108 -41.8108 -31.3323 -31.3323 -18.7842 -18.7842 -18.4052 -18.4052
   -18.0709 -18.0709  -5.8869  -5.8869  -5.3200  -5.3200   5.6254   5.6254
     6.7579   6.7579   7.0696   7.0696   7.7653   7.7653   8.4687   8.4687
     8.7517   8.7517  12.9028  12.9028  15.7625  15.7626  17.7250  17.7251
    17.9710  17.9716

     occupation numbers 
     1.0000   1.0000   1.0000   1.0000   1.0000   1.0000   1.0000   1.0000
     1.0000   1.0000   1.0000   1.0000   1.0000   1.0000   1.0000   1.0000
     1.0000   1.0000   1.0000   1.0000   1.0000   1.0000   1.0000   1.0000
     1.0000   1.0000   1.0000   1.0000  -0.0000  -0.0000  -0.0000  -0.0000
    -0.0000  -0.0000

     the Fermi energy is    14.6884 ev

!    total energy              =    -420.28090760 Ry
     Harris-Foulkes estimate   =    -420.28090760 Ry
     estimated scf accuracy    <          1.9E-10 Ry

     The total energy is the sum of the following terms:

     one-electron contribution =    -106.49662400 Ry
     hartree contribution      =      84.39318472 Ry
     xc contribution           =     -99.96436680 Ry
     ewald contribution        =    -298.21310152 Ry
     smearing contrib. (-TS)   =       0.00000000 Ry

     convergence has been achieved in  10 iterations

     Writing output data file LNO2.save
 
     init_run     :      6.90s CPU      9.09s WALL (       1 calls)
     electrons    :    190.74s CPU    193.34s WALL (       1 calls)

     Called by init_run:
     wfcinit      :      6.01s CPU      6.70s WALL (       1 calls)
     potinit      :      0.10s CPU      0.67s WALL (       1 calls)

     Called by electrons:
     c_bands      :    169.26s CPU    171.24s WALL (      10 calls)
     sum_band     :     20.66s CPU     20.97s WALL (      10 calls)
     v_of_rho     :      0.02s CPU      0.02s WALL (      11 calls)
     v_h          :      0.01s CPU      0.01s WALL (      11 calls)
     v_xc         :      0.01s CPU      0.01s WALL (      11 calls)
     newd         :      0.81s CPU      0.81s WALL (      11 calls)
     mix_rho      :      0.02s CPU      0.02s WALL (      10 calls)

     Called by c_bands:
     init_us_2    :      1.13s CPU      1.14s WALL (    4032 calls)
     cegterg      :    162.85s CPU    163.87s WALL (    1920 calls)

     Called by sum_band:
     sum_band:bec :      0.25s CPU      0.26s WALL (    1920 calls)
     addusdens    :      0.49s CPU      0.49s WALL (      10 calls)

     Called by *egterg:
     h_psi        :    107.34s CPU    108.20s WALL (    8620 calls)
     s_psi        :      3.50s CPU      3.55s WALL (    8620 calls)
     g_psi        :      0.27s CPU      0.28s WALL (    6508 calls)
     cdiaghg      :     32.56s CPU     32.70s WALL (    8428 calls)
     cegterg:over :     10.57s CPU     10.54s WALL (    6508 calls)
     cegterg:upda :      3.71s CPU      3.69s WALL (    6508 calls)
     cegterg:last :      1.56s CPU      1.58s WALL (    1949 calls)

     Called by h_psi:
     h_psi:vloc   :     94.44s CPU     95.28s WALL (    8620 calls)
     h_psi:vnl    :     12.54s CPU     12.55s WALL (    8620 calls)
     add_vuspsi   :      3.66s CPU      3.74s WALL (    8620 calls)

     General routines
     calbec       :     11.29s CPU     11.19s WALL (   10540 calls)
     fft          :      0.27s CPU      0.27s WALL (      95 calls)
     ffts         :      0.01s CPU      0.01s WALL (      21 calls)
     fftw         :    105.33s CPU    106.02s WALL (  434238 calls)
     interpolate  :      0.02s CPU      0.02s WALL (      21 calls)
     davcio       :      0.01s CPU     14.84s WALL (     192 calls)
 
     Parallel routines
     fft_scatter  :     41.35s CPU     40.68s WALL (  434354 calls)
 
     PWSCF        :  3m19.25s CPU     4m27.73s WALL

 
   This run was terminated on:  21:48: 5  19Sep2015            

=------------------------------------------------------------------------------=
   JOB DONE.
=------------------------------------------------------------------------------=
