
     Program PWSCF v.5.2.0 starts on  2Oct2015 at 14:32:19 

     This program is part of the open-source Quantum ESPRESSO suite
     for quantum simulation of materials; please cite
         "P. Giannozzi et al., J. Phys.:Condens. Matter 21 395502 (2009);
          URL http://www.quantum-espresso.org", 
     in publications or presentations arising from this work. More details at
     http://www.quantum-espresso.org/quote

     Parallel version (MPI), running on     1 processors
     Waiting for input...
     Reading input from standard input
     Message from routine read_cards :
     DEPRECATED: no units specified in ATOMIC_POSITIONS card
     Message from routine read_cards :
     ATOMIC_POSITIONS: units set to alat

     Current dimensions of program PWSCF are:
     Max number of different atomic species (ntypx) = 10
     Max number of k-points (npk) =  40000
     Max angular momentum in pseudopotentials (lmaxx) =  3

     Atomic positions and unit cell read from directory:
     ./ni.save/
 
               file Ni.pz-nd-rrkjus.UPF: wavefunction(s)  4S renormalized

     Subspace diagonalization in iterative solution of the eigenvalue problem:
     a serial algorithm will be used

 
     G-vector sticks info
     --------------------
     sticks:   dense  smooth     PW     G-vecs:    dense   smooth      PW
     Sum         421     139     55                 5601     1067     259
 
     Generating pointlists ...
     new r_m :   0.2917 (alat units)  1.8901 (a.u.) for type    1


     bravais-lattice index     =            2
     lattice parameter (alat)  =       6.4800  a.u.
     unit-cell volume          =      68.0244 (a.u.)^3
     number of atoms/cell      =            1
     number of atomic types    =            1
     number of electrons       =        10.00
     number of Kohn-Sham states=           40
     kinetic-energy cutoff     =      24.0000  Ry
     charge density cutoff     =     288.0000  Ry
     Exchange-correlation      =  SLA  PZ   NOGX NOGC ( 1  1  0  0 0 0)

     celldm(1)=   6.480000  celldm(2)=   0.000000  celldm(3)=   0.000000
     celldm(4)=   0.000000  celldm(5)=   0.000000  celldm(6)=   0.000000

     crystal axes: (cart. coord. in units of alat)
               a(1) = (  -0.500000   0.000000   0.500000 )  
               a(2) = (   0.000000   0.500000   0.500000 )  
               a(3) = (  -0.500000   0.500000   0.000000 )  

     reciprocal axes: (cart. coord. in units 2 pi/alat)
               b(1) = ( -1.000000 -1.000000  1.000000 )  
               b(2) = (  1.000000  1.000000  1.000000 )  
               b(3) = ( -1.000000  1.000000 -1.000000 )  


     PseudoPot. # 1 for Ni read from file:
     ./Ni.pz-nd-rrkjus.UPF
     MD5 check sum: bf64e4f20c74808dea28321d1ca350c3
     Pseudo is Ultrasoft + core correction, Zval = 10.0
     Generated by new atomic code, or converted to UPF format
     Using radial grid of 1203 points,  6 beta functions with: 
                l(1) =   0
                l(2) =   0
                l(3) =   1
                l(4) =   1
                l(5) =   2
                l(6) =   2
     Q(r) pseudized with 0 coefficients 


     atomic species   valence    mass     pseudopotential
        Ni            10.00    58.69000     Ni( 1.00)

     Starting magnetic structure 
     atomic species   magnetization
        Ni           0.700

     48 Sym. Ops., with inversion, found


                                    s                        frac. trans.

      isym =  1     identity                                     

 cryst.   s( 1) = (     1          0          0      )
                  (     0          1          0      )
                  (     0          0          1      )

 cart.    s( 1) = (  1.0000000  0.0000000  0.0000000 )
                  (  0.0000000  1.0000000  0.0000000 )
                  (  0.0000000  0.0000000  1.0000000 )


      isym =  2     180 deg rotation - cart. axis [0,0,1]        

 cryst.   s( 2) = (     0          1         -1      )
                  (     1          0         -1      )
                  (     0          0         -1      )

 cart.    s( 2) = ( -1.0000000  0.0000000  0.0000000 )
                  (  0.0000000 -1.0000000  0.0000000 )
                  (  0.0000000  0.0000000  1.0000000 )


      isym =  3     180 deg rotation - cart. axis [0,1,0]        

 cryst.   s( 3) = (    -1          0          0      )
                  (    -1          0          1      )
                  (    -1          1          0      )

 cart.    s( 3) = ( -1.0000000  0.0000000  0.0000000 )
                  (  0.0000000  1.0000000  0.0000000 )
                  (  0.0000000  0.0000000 -1.0000000 )


      isym =  4     180 deg rotation - cart. axis [1,0,0]        

 cryst.   s( 4) = (     0         -1          1      )
                  (     0         -1          0      )
                  (     1         -1          0      )

 cart.    s( 4) = (  1.0000000  0.0000000  0.0000000 )
                  (  0.0000000 -1.0000000  0.0000000 )
                  (  0.0000000  0.0000000 -1.0000000 )


      isym =  5     180 deg rotation - cart. axis [1,1,0]        

 cryst.   s( 5) = (     0         -1          0      )
                  (    -1          0          0      )
                  (     0          0         -1      )

 cart.    s( 5) = (  0.0000000  1.0000000  0.0000000 )
                  (  1.0000000  0.0000000  0.0000000 )
                  (  0.0000000  0.0000000 -1.0000000 )


      isym =  6     180 deg rotation - cart. axis [1,-1,0]       

 cryst.   s( 6) = (    -1          0          1      )
                  (     0         -1          1      )
                  (     0          0          1      )

 cart.    s( 6) = (  0.0000000 -1.0000000  0.0000000 )
                  ( -1.0000000  0.0000000  0.0000000 )
                  (  0.0000000  0.0000000 -1.0000000 )


      isym =  7      90 deg rotation - cart. axis [0,0,-1]       

 cryst.   s( 7) = (     0          1          0      )
                  (     0          1         -1      )
                  (    -1          1          0      )

 cart.    s( 7) = (  0.0000000  1.0000000  0.0000000 )
                  ( -1.0000000  0.0000000  0.0000000 )
                  (  0.0000000  0.0000000  1.0000000 )


      isym =  8      90 deg rotation - cart. axis [0,0,1]        

 cryst.   s( 8) = (     1          0         -1      )
                  (     1          0          0      )
                  (     1         -1          0      )

 cart.    s( 8) = (  0.0000000 -1.0000000  0.0000000 )
                  (  1.0000000  0.0000000  0.0000000 )
                  (  0.0000000  0.0000000  1.0000000 )


      isym =  9     180 deg rotation - cart. axis [1,0,1]        

 cryst.   s( 9) = (    -1          0          0      )
                  (     0          0         -1      )
                  (     0         -1          0      )

 cart.    s( 9) = (  0.0000000  0.0000000  1.0000000 )
                  (  0.0000000 -1.0000000  0.0000000 )
                  (  1.0000000  0.0000000  0.0000000 )


      isym = 10     180 deg rotation - cart. axis [-1,0,1]       

 cryst.   s(10) = (     1          0          0      )
                  (     1         -1          0      )
                  (     1          0         -1      )

 cart.    s(10) = (  0.0000000  0.0000000 -1.0000000 )
                  (  0.0000000 -1.0000000  0.0000000 )
                  ( -1.0000000  0.0000000  0.0000000 )


      isym = 11      90 deg rotation - cart. axis [0,1,0]        

 cryst.   s(11) = (     0          1         -1      )
                  (    -1          1          0      )
                  (     0          1          0      )

 cart.    s(11) = (  0.0000000  0.0000000  1.0000000 )
                  (  0.0000000  1.0000000  0.0000000 )
                  ( -1.0000000  0.0000000  0.0000000 )


      isym = 12      90 deg rotation - cart. axis [0,-1,0]       

 cryst.   s(12) = (     0         -1          1      )
                  (     0          0          1      )
                  (    -1          0          1      )

 cart.    s(12) = (  0.0000000  0.0000000 -1.0000000 )
                  (  0.0000000  1.0000000  0.0000000 )
                  (  1.0000000  0.0000000  0.0000000 )


      isym = 13     180 deg rotation - cart. axis [0,1,1]        

 cryst.   s(13) = (    -1          1          0      )
                  (     0          1          0      )
                  (     0          1         -1      )

 cart.    s(13) = ( -1.0000000  0.0000000  0.0000000 )
                  (  0.0000000  0.0000000  1.0000000 )
                  (  0.0000000  1.0000000  0.0000000 )


      isym = 14     180 deg rotation - cart. axis [0,1,-1]       

 cryst.   s(14) = (     0          0         -1      )
                  (     0         -1          0      )
                  (    -1          0          0      )

 cart.    s(14) = ( -1.0000000  0.0000000  0.0000000 )
                  (  0.0000000  0.0000000 -1.0000000 )
                  (  0.0000000 -1.0000000  0.0000000 )


      isym = 15      90 deg rotation - cart. axis [-1,0,0]       

 cryst.   s(15) = (     0          0          1      )
                  (    -1          0          1      )
                  (     0         -1          1      )

 cart.    s(15) = (  1.0000000  0.0000000  0.0000000 )
                  (  0.0000000  0.0000000  1.0000000 )
                  (  0.0000000 -1.0000000  0.0000000 )


      isym = 16      90 deg rotation - cart. axis [1,0,0]        

 cryst.   s(16) = (     1         -1          0      )
                  (     1          0         -1      )
                  (     1          0          0      )

 cart.    s(16) = (  1.0000000  0.0000000  0.0000000 )
                  (  0.0000000  0.0000000 -1.0000000 )
                  (  0.0000000  1.0000000  0.0000000 )


      isym = 17     120 deg rotation - cart. axis [-1,-1,-1]     

 cryst.   s(17) = (    -1          0          1      )
                  (    -1          1          0      )
                  (    -1          0          0      )

 cart.    s(17) = (  0.0000000  1.0000000  0.0000000 )
                  (  0.0000000  0.0000000  1.0000000 )
                  (  1.0000000  0.0000000  0.0000000 )


      isym = 18     120 deg rotation - cart. axis [-1,1,1]       

 cryst.   s(18) = (     0          1          0      )
                  (     0          0          1      )
                  (     1          0          0      )

 cart.    s(18) = (  0.0000000 -1.0000000  0.0000000 )
                  (  0.0000000  0.0000000  1.0000000 )
                  ( -1.0000000  0.0000000  0.0000000 )


      isym = 19     120 deg rotation - cart. axis [1,1,-1]       

 cryst.   s(19) = (     1          0         -1      )
                  (     0          0         -1      )
                  (     0          1         -1      )

 cart.    s(19) = (  0.0000000  1.0000000  0.0000000 )
                  (  0.0000000  0.0000000 -1.0000000 )
                  ( -1.0000000  0.0000000  0.0000000 )


      isym = 20     120 deg rotation - cart. axis [1,-1,1]       

 cryst.   s(20) = (     0         -1          0      )
                  (     1         -1          0      )
                  (     0         -1          1      )

 cart.    s(20) = (  0.0000000 -1.0000000  0.0000000 )
                  (  0.0000000  0.0000000 -1.0000000 )
                  (  1.0000000  0.0000000  0.0000000 )


      isym = 21     120 deg rotation - cart. axis [1,1,1]        

 cryst.   s(21) = (     0          0         -1      )
                  (     0          1         -1      )
                  (     1          0         -1      )

 cart.    s(21) = (  0.0000000  0.0000000  1.0000000 )
                  (  1.0000000  0.0000000  0.0000000 )
                  (  0.0000000  1.0000000  0.0000000 )


      isym = 22     120 deg rotation - cart. axis [-1,1,-1]      

 cryst.   s(22) = (    -1          1          0      )
                  (    -1          0          0      )
                  (    -1          0          1      )

 cart.    s(22) = (  0.0000000  0.0000000  1.0000000 )
                  ( -1.0000000  0.0000000  0.0000000 )
                  (  0.0000000 -1.0000000  0.0000000 )


      isym = 23     120 deg rotation - cart. axis [1,-1,-1]      

 cryst.   s(23) = (     0          0          1      )
                  (     1          0          0      )
                  (     0          1          0      )

 cart.    s(23) = (  0.0000000  0.0000000 -1.0000000 )
                  ( -1.0000000  0.0000000  0.0000000 )
                  (  0.0000000  1.0000000  0.0000000 )


      isym = 24     120 deg rotation - cart. axis [-1,-1,1]      

 cryst.   s(24) = (     1         -1          0      )
                  (     0         -1          1      )
                  (     0         -1          0      )

 cart.    s(24) = (  0.0000000  0.0000000 -1.0000000 )
                  (  1.0000000  0.0000000  0.0000000 )
                  (  0.0000000 -1.0000000  0.0000000 )


      isym = 25     inversion                                    

 cryst.   s(25) = (    -1          0          0      )
                  (     0         -1          0      )
                  (     0          0         -1      )

 cart.    s(25) = ( -1.0000000  0.0000000  0.0000000 )
                  (  0.0000000 -1.0000000  0.0000000 )
                  (  0.0000000  0.0000000 -1.0000000 )


      isym = 26     inv. 180 deg rotation - cart. axis [0,0,1]   

 cryst.   s(26) = (     0         -1          1      )
                  (    -1          0          1      )
                  (     0          0          1      )

 cart.    s(26) = (  1.0000000  0.0000000  0.0000000 )
                  (  0.0000000  1.0000000  0.0000000 )
                  (  0.0000000  0.0000000 -1.0000000 )


      isym = 27     inv. 180 deg rotation - cart. axis [0,1,0]   

 cryst.   s(27) = (     1          0          0      )
                  (     1          0         -1      )
                  (     1         -1          0      )

 cart.    s(27) = (  1.0000000  0.0000000  0.0000000 )
                  (  0.0000000 -1.0000000  0.0000000 )
                  (  0.0000000  0.0000000  1.0000000 )


      isym = 28     inv. 180 deg rotation - cart. axis [1,0,0]   

 cryst.   s(28) = (     0          1         -1      )
                  (     0          1          0      )
                  (    -1          1          0      )

 cart.    s(28) = ( -1.0000000  0.0000000  0.0000000 )
                  (  0.0000000  1.0000000  0.0000000 )
                  (  0.0000000  0.0000000  1.0000000 )


      isym = 29     inv. 180 deg rotation - cart. axis [1,1,0]   

 cryst.   s(29) = (     0          1          0      )
                  (     1          0          0      )
                  (     0          0          1      )

 cart.    s(29) = (  0.0000000 -1.0000000  0.0000000 )
                  ( -1.0000000  0.0000000  0.0000000 )
                  (  0.0000000  0.0000000  1.0000000 )


      isym = 30     inv. 180 deg rotation - cart. axis [1,-1,0]  

 cryst.   s(30) = (     1          0         -1      )
                  (     0          1         -1      )
                  (     0          0         -1      )

 cart.    s(30) = (  0.0000000  1.0000000  0.0000000 )
                  (  1.0000000  0.0000000  0.0000000 )
                  (  0.0000000  0.0000000  1.0000000 )


      isym = 31     inv.  90 deg rotation - cart. axis [0,0,-1]  

 cryst.   s(31) = (     0         -1          0      )
                  (     0         -1          1      )
                  (     1         -1          0      )

 cart.    s(31) = (  0.0000000 -1.0000000  0.0000000 )
                  (  1.0000000  0.0000000  0.0000000 )
                  (  0.0000000  0.0000000 -1.0000000 )


      isym = 32     inv.  90 deg rotation - cart. axis [0,0,1]   

 cryst.   s(32) = (    -1          0          1      )
                  (    -1          0          0      )
                  (    -1          1          0      )

 cart.    s(32) = (  0.0000000  1.0000000  0.0000000 )
                  ( -1.0000000  0.0000000  0.0000000 )
                  (  0.0000000  0.0000000 -1.0000000 )


      isym = 33     inv. 180 deg rotation - cart. axis [1,0,1]   

 cryst.   s(33) = (     1          0          0      )
                  (     0          0          1      )
                  (     0          1          0      )

 cart.    s(33) = (  0.0000000  0.0000000 -1.0000000 )
                  (  0.0000000  1.0000000  0.0000000 )
                  ( -1.0000000  0.0000000  0.0000000 )


      isym = 34     inv. 180 deg rotation - cart. axis [-1,0,1]  

 cryst.   s(34) = (    -1          0          0      )
                  (    -1          1          0      )
                  (    -1          0          1      )

 cart.    s(34) = (  0.0000000  0.0000000  1.0000000 )
                  (  0.0000000  1.0000000  0.0000000 )
                  (  1.0000000  0.0000000  0.0000000 )


      isym = 35     inv.  90 deg rotation - cart. axis [0,1,0]   

 cryst.   s(35) = (     0         -1          1      )
                  (     1         -1          0      )
                  (     0         -1          0      )

 cart.    s(35) = (  0.0000000  0.0000000 -1.0000000 )
                  (  0.0000000 -1.0000000  0.0000000 )
                  (  1.0000000  0.0000000  0.0000000 )


      isym = 36     inv.  90 deg rotation - cart. axis [0,-1,0]  

 cryst.   s(36) = (     0          1         -1      )
                  (     0          0         -1      )
                  (     1          0         -1      )

 cart.    s(36) = (  0.0000000  0.0000000  1.0000000 )
                  (  0.0000000 -1.0000000  0.0000000 )
                  ( -1.0000000  0.0000000  0.0000000 )


      isym = 37     inv. 180 deg rotation - cart. axis [0,1,1]   

 cryst.   s(37) = (     1         -1          0      )
                  (     0         -1          0      )
                  (     0         -1          1      )

 cart.    s(37) = (  1.0000000  0.0000000  0.0000000 )
                  (  0.0000000  0.0000000 -1.0000000 )
                  (  0.0000000 -1.0000000  0.0000000 )


      isym = 38     inv. 180 deg rotation - cart. axis [0,1,-1]  

 cryst.   s(38) = (     0          0          1      )
                  (     0          1          0      )
                  (     1          0          0      )

 cart.    s(38) = (  1.0000000  0.0000000  0.0000000 )
                  (  0.0000000  0.0000000  1.0000000 )
                  (  0.0000000  1.0000000  0.0000000 )


      isym = 39     inv.  90 deg rotation - cart. axis [-1,0,0]  

 cryst.   s(39) = (     0          0         -1      )
                  (     1          0         -1      )
                  (     0          1         -1      )

 cart.    s(39) = ( -1.0000000  0.0000000  0.0000000 )
                  (  0.0000000  0.0000000 -1.0000000 )
                  (  0.0000000  1.0000000  0.0000000 )


      isym = 40     inv.  90 deg rotation - cart. axis [1,0,0]   

 cryst.   s(40) = (    -1          1          0      )
                  (    -1          0          1      )
                  (    -1          0          0      )

 cart.    s(40) = ( -1.0000000  0.0000000  0.0000000 )
                  (  0.0000000  0.0000000  1.0000000 )
                  (  0.0000000 -1.0000000  0.0000000 )


      isym = 41     inv. 120 deg rotation - cart. axis [-1,-1,-1]

 cryst.   s(41) = (     1          0         -1      )
                  (     1         -1          0      )
                  (     1          0          0      )

 cart.    s(41) = (  0.0000000 -1.0000000  0.0000000 )
                  (  0.0000000  0.0000000 -1.0000000 )
                  ( -1.0000000  0.0000000  0.0000000 )


      isym = 42     inv. 120 deg rotation - cart. axis [-1,1,1]  

 cryst.   s(42) = (     0         -1          0      )
                  (     0          0         -1      )
                  (    -1          0          0      )

 cart.    s(42) = (  0.0000000  1.0000000  0.0000000 )
                  (  0.0000000  0.0000000 -1.0000000 )
                  (  1.0000000  0.0000000  0.0000000 )


      isym = 43     inv. 120 deg rotation - cart. axis [1,1,-1]  

 cryst.   s(43) = (    -1          0          1      )
                  (     0          0          1      )
                  (     0         -1          1      )

 cart.    s(43) = (  0.0000000 -1.0000000  0.0000000 )
                  (  0.0000000  0.0000000  1.0000000 )
                  (  1.0000000  0.0000000  0.0000000 )


      isym = 44     inv. 120 deg rotation - cart. axis [1,-1,1]  

 cryst.   s(44) = (     0          1          0      )
                  (    -1          1          0      )
                  (     0          1         -1      )

 cart.    s(44) = (  0.0000000  1.0000000  0.0000000 )
                  (  0.0000000  0.0000000  1.0000000 )
                  ( -1.0000000  0.0000000  0.0000000 )


      isym = 45     inv. 120 deg rotation - cart. axis [1,1,1]   

 cryst.   s(45) = (     0          0          1      )
                  (     0         -1          1      )
                  (    -1          0          1      )

 cart.    s(45) = (  0.0000000  0.0000000 -1.0000000 )
                  ( -1.0000000  0.0000000  0.0000000 )
                  (  0.0000000 -1.0000000  0.0000000 )


      isym = 46     inv. 120 deg rotation - cart. axis [-1,1,-1] 

 cryst.   s(46) = (     1         -1          0      )
                  (     1          0          0      )
                  (     1          0         -1      )

 cart.    s(46) = (  0.0000000  0.0000000 -1.0000000 )
                  (  1.0000000  0.0000000  0.0000000 )
                  (  0.0000000  1.0000000  0.0000000 )


      isym = 47     inv. 120 deg rotation - cart. axis [1,-1,-1] 

 cryst.   s(47) = (     0          0         -1      )
                  (    -1          0          0      )
                  (     0         -1          0      )

 cart.    s(47) = (  0.0000000  0.0000000  1.0000000 )
                  (  1.0000000  0.0000000  0.0000000 )
                  (  0.0000000 -1.0000000  0.0000000 )


      isym = 48     inv. 120 deg rotation - cart. axis [-1,-1,1] 

 cryst.   s(48) = (    -1          1          0      )
                  (     0          1         -1      )
                  (     0          1          0      )

 cart.    s(48) = (  0.0000000  0.0000000  1.0000000 )
                  ( -1.0000000  0.0000000  0.0000000 )
                  (  0.0000000  1.0000000  0.0000000 )


     point group O_h (m-3m) 
     there are 10 classes
     the character table:

       E     8C3   3C2   6C4   6C2'  i     8S6   3s_h  6S4   6s_d 
A_1g   1.00  1.00  1.00  1.00  1.00  1.00  1.00  1.00  1.00  1.00
A_2g   1.00  1.00  1.00 -1.00 -1.00  1.00  1.00  1.00 -1.00 -1.00
E_g    2.00 -1.00  2.00  0.00  0.00  2.00 -1.00  2.00  0.00  0.00
T_1g   3.00  0.00 -1.00  1.00 -1.00  3.00  0.00 -1.00  1.00 -1.00
T_2g   3.00  0.00 -1.00 -1.00  1.00  3.00  0.00 -1.00 -1.00  1.00
A_1u   1.00  1.00  1.00  1.00  1.00 -1.00 -1.00 -1.00 -1.00 -1.00
A_2u   1.00  1.00  1.00 -1.00 -1.00 -1.00 -1.00 -1.00  1.00  1.00
E_u    2.00 -1.00  2.00  0.00  0.00 -2.00  1.00 -2.00  0.00  0.00
T_1u   3.00  0.00 -1.00  1.00 -1.00 -3.00  0.00  1.00 -1.00  1.00
T_2u   3.00  0.00 -1.00 -1.00  1.00 -3.00  0.00  1.00  1.00 -1.00

     the symmetry operations in each class and the name of the first element:

     E        1
          identity                                               
     8C3     17   19   20   18   24   21   22   23
          120 deg rotation - cart. axis [-1,-1,-1]               
     3C2      2    4    3
          180 deg rotation - cart. axis [0,0,1]                  
     6C4      7    8   15   16   12   11
           90 deg rotation - cart. axis [0,0,-1]                 
     6C2'     5    6   14   13   10    9
          180 deg rotation - cart. axis [1,1,0]                  
     i       25
          inversion                                              
     8S6     41   43   44   42   48   45   46   47
          inv. 120 deg rotation - cart. axis [-1,-1,-1]          
     3s_h    26   28   27
          inv. 180 deg rotation - cart. axis [0,0,1]             
     6S4     31   32   39   40   36   35
          inv.  90 deg rotation - cart. axis [0,0,-1]            
     6s_d    29   30   38   37   34   33
          inv. 180 deg rotation - cart. axis [1,1,0]             

   Cartesian axes

     site n.     atom                  positions (alat units)
         1           Ni  tau(   1) = (   0.0000000   0.0000000   0.0000000  )

   Crystallographic axes

     site n.     atom                  positions (cryst. coord.)
         1           Ni  tau(   1) = (  0.0000000  0.0000000  0.0000000  )

     number of k points=   120  Methfessel-Paxton smearing, width (Ry)=  0.0200
                       cart. coord. in units 2pi/alat
        k(    1) = (   0.0625000   0.0625000   0.0625000), wk =   0.0039062
        k(    2) = (   0.0625000   0.0625000   0.1875000), wk =   0.0117188
        k(    3) = (   0.0625000   0.0625000   0.3125000), wk =   0.0117188
        k(    4) = (   0.0625000   0.0625000   0.4375000), wk =   0.0117188
        k(    5) = (   0.0625000   0.0625000   0.5625000), wk =   0.0117188
        k(    6) = (   0.0625000   0.0625000   0.6875000), wk =   0.0117188
        k(    7) = (   0.0625000   0.0625000   0.8125000), wk =   0.0117188
        k(    8) = (   0.0625000   0.0625000   0.9375000), wk =   0.0117188
        k(    9) = (   0.0625000   0.1875000   0.1875000), wk =   0.0117188
        k(   10) = (   0.0625000   0.1875000   0.3125000), wk =   0.0234375
        k(   11) = (   0.0625000   0.1875000   0.4375000), wk =   0.0234375
        k(   12) = (   0.0625000   0.1875000   0.5625000), wk =   0.0234375
        k(   13) = (   0.0625000   0.1875000   0.6875000), wk =   0.0234375
        k(   14) = (   0.0625000   0.1875000   0.8125000), wk =   0.0234375
        k(   15) = (   0.0625000   0.1875000   0.9375000), wk =   0.0234375
        k(   16) = (   0.0625000   0.3125000   0.3125000), wk =   0.0117188
        k(   17) = (   0.0625000   0.3125000   0.4375000), wk =   0.0234375
        k(   18) = (   0.0625000   0.3125000   0.5625000), wk =   0.0234375
        k(   19) = (   0.0625000   0.3125000   0.6875000), wk =   0.0234375
        k(   20) = (   0.0625000   0.3125000   0.8125000), wk =   0.0234375
        k(   21) = (   0.0625000   0.3125000   0.9375000), wk =   0.0234375
        k(   22) = (   0.0625000   0.4375000   0.4375000), wk =   0.0117188
        k(   23) = (   0.0625000   0.4375000   0.5625000), wk =   0.0234375
        k(   24) = (   0.0625000   0.4375000   0.6875000), wk =   0.0234375
        k(   25) = (   0.0625000   0.4375000   0.8125000), wk =   0.0234375
        k(   26) = (   0.0625000   0.4375000   0.9375000), wk =   0.0234375
        k(   27) = (   0.0625000   0.5625000   0.5625000), wk =   0.0117188
        k(   28) = (   0.0625000   0.5625000   0.6875000), wk =   0.0234375
        k(   29) = (   0.0625000   0.5625000   0.8125000), wk =   0.0234375
        k(   30) = (   0.0625000   0.6875000   0.6875000), wk =   0.0117188
        k(   31) = (   0.0625000   0.6875000   0.8125000), wk =   0.0234375
        k(   32) = (   0.0625000   0.8125000   0.8125000), wk =   0.0117188
        k(   33) = (   0.1875000   0.1875000   0.1875000), wk =   0.0039062
        k(   34) = (   0.1875000   0.1875000   0.3125000), wk =   0.0117188
        k(   35) = (   0.1875000   0.1875000   0.4375000), wk =   0.0117188
        k(   36) = (   0.1875000   0.1875000   0.5625000), wk =   0.0117188
        k(   37) = (   0.1875000   0.1875000   0.6875000), wk =   0.0117188
        k(   38) = (   0.1875000   0.1875000   0.8125000), wk =   0.0117188
        k(   39) = (   0.1875000   0.3125000   0.3125000), wk =   0.0117188
        k(   40) = (   0.1875000   0.3125000   0.4375000), wk =   0.0234375
        k(   41) = (   0.1875000   0.3125000   0.5625000), wk =   0.0234375
        k(   42) = (   0.1875000   0.3125000   0.6875000), wk =   0.0234375
        k(   43) = (   0.1875000   0.3125000   0.8125000), wk =   0.0234375
        k(   44) = (   0.1875000   0.4375000   0.4375000), wk =   0.0117188
        k(   45) = (   0.1875000   0.4375000   0.5625000), wk =   0.0234375
        k(   46) = (   0.1875000   0.4375000   0.6875000), wk =   0.0234375
        k(   47) = (   0.1875000   0.4375000   0.8125000), wk =   0.0234375
        k(   48) = (   0.1875000   0.5625000   0.5625000), wk =   0.0117188
        k(   49) = (   0.1875000   0.5625000   0.6875000), wk =   0.0234375
        k(   50) = (   0.1875000   0.6875000   0.6875000), wk =   0.0117188
        k(   51) = (   0.3125000   0.3125000   0.3125000), wk =   0.0039062
        k(   52) = (   0.3125000   0.3125000   0.4375000), wk =   0.0117188
        k(   53) = (   0.3125000   0.3125000   0.5625000), wk =   0.0117188
        k(   54) = (   0.3125000   0.3125000   0.6875000), wk =   0.0117188
        k(   55) = (   0.3125000   0.4375000   0.4375000), wk =   0.0117188
        k(   56) = (   0.3125000   0.4375000   0.5625000), wk =   0.0234375
        k(   57) = (   0.3125000   0.4375000   0.6875000), wk =   0.0234375
        k(   58) = (   0.3125000   0.5625000   0.5625000), wk =   0.0117188
        k(   59) = (   0.4375000   0.4375000   0.4375000), wk =   0.0039062
        k(   60) = (   0.4375000   0.4375000   0.5625000), wk =   0.0117188
        k(   61) = (   0.0625000   0.0625000   0.0625000), wk =   0.0039062
        k(   62) = (   0.0625000   0.0625000   0.1875000), wk =   0.0117188
        k(   63) = (   0.0625000   0.0625000   0.3125000), wk =   0.0117188
        k(   64) = (   0.0625000   0.0625000   0.4375000), wk =   0.0117188
        k(   65) = (   0.0625000   0.0625000   0.5625000), wk =   0.0117188
        k(   66) = (   0.0625000   0.0625000   0.6875000), wk =   0.0117188
        k(   67) = (   0.0625000   0.0625000   0.8125000), wk =   0.0117188
        k(   68) = (   0.0625000   0.0625000   0.9375000), wk =   0.0117188
        k(   69) = (   0.0625000   0.1875000   0.1875000), wk =   0.0117188
        k(   70) = (   0.0625000   0.1875000   0.3125000), wk =   0.0234375
        k(   71) = (   0.0625000   0.1875000   0.4375000), wk =   0.0234375
        k(   72) = (   0.0625000   0.1875000   0.5625000), wk =   0.0234375
        k(   73) = (   0.0625000   0.1875000   0.6875000), wk =   0.0234375
        k(   74) = (   0.0625000   0.1875000   0.8125000), wk =   0.0234375
        k(   75) = (   0.0625000   0.1875000   0.9375000), wk =   0.0234375
        k(   76) = (   0.0625000   0.3125000   0.3125000), wk =   0.0117188
        k(   77) = (   0.0625000   0.3125000   0.4375000), wk =   0.0234375
        k(   78) = (   0.0625000   0.3125000   0.5625000), wk =   0.0234375
        k(   79) = (   0.0625000   0.3125000   0.6875000), wk =   0.0234375
        k(   80) = (   0.0625000   0.3125000   0.8125000), wk =   0.0234375
        k(   81) = (   0.0625000   0.3125000   0.9375000), wk =   0.0234375
        k(   82) = (   0.0625000   0.4375000   0.4375000), wk =   0.0117188
        k(   83) = (   0.0625000   0.4375000   0.5625000), wk =   0.0234375
        k(   84) = (   0.0625000   0.4375000   0.6875000), wk =   0.0234375
        k(   85) = (   0.0625000   0.4375000   0.8125000), wk =   0.0234375
        k(   86) = (   0.0625000   0.4375000   0.9375000), wk =   0.0234375
        k(   87) = (   0.0625000   0.5625000   0.5625000), wk =   0.0117188
        k(   88) = (   0.0625000   0.5625000   0.6875000), wk =   0.0234375
        k(   89) = (   0.0625000   0.5625000   0.8125000), wk =   0.0234375
        k(   90) = (   0.0625000   0.6875000   0.6875000), wk =   0.0117188
        k(   91) = (   0.0625000   0.6875000   0.8125000), wk =   0.0234375
        k(   92) = (   0.0625000   0.8125000   0.8125000), wk =   0.0117188
        k(   93) = (   0.1875000   0.1875000   0.1875000), wk =   0.0039062
        k(   94) = (   0.1875000   0.1875000   0.3125000), wk =   0.0117188
        k(   95) = (   0.1875000   0.1875000   0.4375000), wk =   0.0117188
        k(   96) = (   0.1875000   0.1875000   0.5625000), wk =   0.0117188
        k(   97) = (   0.1875000   0.1875000   0.6875000), wk =   0.0117188
        k(   98) = (   0.1875000   0.1875000   0.8125000), wk =   0.0117188
        k(   99) = (   0.1875000   0.3125000   0.3125000), wk =   0.0117188
        k(  100) = (   0.1875000   0.3125000   0.4375000), wk =   0.0234375
        k(  101) = (   0.1875000   0.3125000   0.5625000), wk =   0.0234375
        k(  102) = (   0.1875000   0.3125000   0.6875000), wk =   0.0234375
        k(  103) = (   0.1875000   0.3125000   0.8125000), wk =   0.0234375
        k(  104) = (   0.1875000   0.4375000   0.4375000), wk =   0.0117188
        k(  105) = (   0.1875000   0.4375000   0.5625000), wk =   0.0234375
        k(  106) = (   0.1875000   0.4375000   0.6875000), wk =   0.0234375
        k(  107) = (   0.1875000   0.4375000   0.8125000), wk =   0.0234375
        k(  108) = (   0.1875000   0.5625000   0.5625000), wk =   0.0117188
        k(  109) = (   0.1875000   0.5625000   0.6875000), wk =   0.0234375
        k(  110) = (   0.1875000   0.6875000   0.6875000), wk =   0.0117188
        k(  111) = (   0.3125000   0.3125000   0.3125000), wk =   0.0039062
        k(  112) = (   0.3125000   0.3125000   0.4375000), wk =   0.0117188
        k(  113) = (   0.3125000   0.3125000   0.5625000), wk =   0.0117188
        k(  114) = (   0.3125000   0.3125000   0.6875000), wk =   0.0117188
        k(  115) = (   0.3125000   0.4375000   0.4375000), wk =   0.0117188
        k(  116) = (   0.3125000   0.4375000   0.5625000), wk =   0.0234375
        k(  117) = (   0.3125000   0.4375000   0.6875000), wk =   0.0234375
        k(  118) = (   0.3125000   0.5625000   0.5625000), wk =   0.0117188
        k(  119) = (   0.4375000   0.4375000   0.4375000), wk =   0.0039062
        k(  120) = (   0.4375000   0.4375000   0.5625000), wk =   0.0117188

                       cryst. coord.
        k(    1) = (   0.0000000   0.0625000   0.0000000), wk =   0.0039062
        k(    2) = (   0.0625000   0.1250000   0.0000000), wk =   0.0117188
        k(    3) = (   0.1250000   0.1875000   0.0000000), wk =   0.0117188
        k(    4) = (   0.1875000   0.2500000   0.0000000), wk =   0.0117188
        k(    5) = (   0.2500000   0.3125000   0.0000000), wk =   0.0117188
        k(    6) = (   0.3125000   0.3750000   0.0000000), wk =   0.0117188
        k(    7) = (   0.3750000   0.4375000   0.0000000), wk =   0.0117188
        k(    8) = (   0.4375000   0.5000000   0.0000000), wk =   0.0117188
        k(    9) = (   0.0625000   0.1875000   0.0625000), wk =   0.0117188
        k(   10) = (   0.1250000   0.2500000   0.0625000), wk =   0.0234375
        k(   11) = (   0.1875000   0.3125000   0.0625000), wk =   0.0234375
        k(   12) = (   0.2500000   0.3750000   0.0625000), wk =   0.0234375
        k(   13) = (   0.3125000   0.4375000   0.0625000), wk =   0.0234375
        k(   14) = (   0.3750000   0.5000000   0.0625000), wk =   0.0234375
        k(   15) = (   0.4375000   0.5625000   0.0625000), wk =   0.0234375
        k(   16) = (   0.1250000   0.3125000   0.1250000), wk =   0.0117188
        k(   17) = (   0.1875000   0.3750000   0.1250000), wk =   0.0234375
        k(   18) = (   0.2500000   0.4375000   0.1250000), wk =   0.0234375
        k(   19) = (   0.3125000   0.5000000   0.1250000), wk =   0.0234375
        k(   20) = (   0.3750000   0.5625000   0.1250000), wk =   0.0234375
        k(   21) = (   0.4375000   0.6250000   0.1250000), wk =   0.0234375
        k(   22) = (   0.1875000   0.4375000   0.1875000), wk =   0.0117188
        k(   23) = (   0.2500000   0.5000000   0.1875000), wk =   0.0234375
        k(   24) = (   0.3125000   0.5625000   0.1875000), wk =   0.0234375
        k(   25) = (   0.3750000   0.6250000   0.1875000), wk =   0.0234375
        k(   26) = (   0.4375000   0.6875000   0.1875000), wk =   0.0234375
        k(   27) = (   0.2500000   0.5625000   0.2500000), wk =   0.0117188
        k(   28) = (   0.3125000   0.6250000   0.2500000), wk =   0.0234375
        k(   29) = (   0.3750000   0.6875000   0.2500000), wk =   0.0234375
        k(   30) = (   0.3125000   0.6875000   0.3125000), wk =   0.0117188
        k(   31) = (   0.3750000   0.7500000   0.3125000), wk =   0.0234375
        k(   32) = (   0.3750000   0.8125000   0.3750000), wk =   0.0117188
        k(   33) = (   0.0000000   0.1875000   0.0000000), wk =   0.0039062
        k(   34) = (   0.0625000   0.2500000   0.0000000), wk =   0.0117188
        k(   35) = (   0.1250000   0.3125000   0.0000000), wk =   0.0117188
        k(   36) = (   0.1875000   0.3750000   0.0000000), wk =   0.0117188
        k(   37) = (   0.2500000   0.4375000   0.0000000), wk =   0.0117188
        k(   38) = (   0.3125000   0.5000000   0.0000000), wk =   0.0117188
        k(   39) = (   0.0625000   0.3125000   0.0625000), wk =   0.0117188
        k(   40) = (   0.1250000   0.3750000   0.0625000), wk =   0.0234375
        k(   41) = (   0.1875000   0.4375000   0.0625000), wk =   0.0234375
        k(   42) = (   0.2500000   0.5000000   0.0625000), wk =   0.0234375
        k(   43) = (   0.3125000   0.5625000   0.0625000), wk =   0.0234375
        k(   44) = (   0.1250000   0.4375000   0.1250000), wk =   0.0117188
        k(   45) = (   0.1875000   0.5000000   0.1250000), wk =   0.0234375
        k(   46) = (   0.2500000   0.5625000   0.1250000), wk =   0.0234375
        k(   47) = (   0.3125000   0.6250000   0.1250000), wk =   0.0234375
        k(   48) = (   0.1875000   0.5625000   0.1875000), wk =   0.0117188
        k(   49) = (   0.2500000   0.6250000   0.1875000), wk =   0.0234375
        k(   50) = (   0.2500000   0.6875000   0.2500000), wk =   0.0117188
        k(   51) = (   0.0000000   0.3125000   0.0000000), wk =   0.0039062
        k(   52) = (   0.0625000   0.3750000   0.0000000), wk =   0.0117188
        k(   53) = (   0.1250000   0.4375000   0.0000000), wk =   0.0117188
        k(   54) = (   0.1875000   0.5000000   0.0000000), wk =   0.0117188
        k(   55) = (   0.0625000   0.4375000   0.0625000), wk =   0.0117188
        k(   56) = (   0.1250000   0.5000000   0.0625000), wk =   0.0234375
        k(   57) = (   0.1875000   0.5625000   0.0625000), wk =   0.0234375
        k(   58) = (   0.1250000   0.5625000   0.1250000), wk =   0.0117188
        k(   59) = (   0.0000000   0.4375000   0.0000000), wk =   0.0039062
        k(   60) = (   0.0625000   0.5000000   0.0000000), wk =   0.0117188
        k(   61) = (   0.0000000   0.0625000   0.0000000), wk =   0.0039062
        k(   62) = (   0.0625000   0.1250000   0.0000000), wk =   0.0117188
        k(   63) = (   0.1250000   0.1875000   0.0000000), wk =   0.0117188
        k(   64) = (   0.1875000   0.2500000   0.0000000), wk =   0.0117188
        k(   65) = (   0.2500000   0.3125000   0.0000000), wk =   0.0117188
        k(   66) = (   0.3125000   0.3750000   0.0000000), wk =   0.0117188
        k(   67) = (   0.3750000   0.4375000   0.0000000), wk =   0.0117188
        k(   68) = (   0.4375000   0.5000000   0.0000000), wk =   0.0117188
        k(   69) = (   0.0625000   0.1875000   0.0625000), wk =   0.0117188
        k(   70) = (   0.1250000   0.2500000   0.0625000), wk =   0.0234375
        k(   71) = (   0.1875000   0.3125000   0.0625000), wk =   0.0234375
        k(   72) = (   0.2500000   0.3750000   0.0625000), wk =   0.0234375
        k(   73) = (   0.3125000   0.4375000   0.0625000), wk =   0.0234375
        k(   74) = (   0.3750000   0.5000000   0.0625000), wk =   0.0234375
        k(   75) = (   0.4375000   0.5625000   0.0625000), wk =   0.0234375
        k(   76) = (   0.1250000   0.3125000   0.1250000), wk =   0.0117188
        k(   77) = (   0.1875000   0.3750000   0.1250000), wk =   0.0234375
        k(   78) = (   0.2500000   0.4375000   0.1250000), wk =   0.0234375
        k(   79) = (   0.3125000   0.5000000   0.1250000), wk =   0.0234375
        k(   80) = (   0.3750000   0.5625000   0.1250000), wk =   0.0234375
        k(   81) = (   0.4375000   0.6250000   0.1250000), wk =   0.0234375
        k(   82) = (   0.1875000   0.4375000   0.1875000), wk =   0.0117188
        k(   83) = (   0.2500000   0.5000000   0.1875000), wk =   0.0234375
        k(   84) = (   0.3125000   0.5625000   0.1875000), wk =   0.0234375
        k(   85) = (   0.3750000   0.6250000   0.1875000), wk =   0.0234375
        k(   86) = (   0.4375000   0.6875000   0.1875000), wk =   0.0234375
        k(   87) = (   0.2500000   0.5625000   0.2500000), wk =   0.0117188
        k(   88) = (   0.3125000   0.6250000   0.2500000), wk =   0.0234375
        k(   89) = (   0.3750000   0.6875000   0.2500000), wk =   0.0234375
        k(   90) = (   0.3125000   0.6875000   0.3125000), wk =   0.0117188
        k(   91) = (   0.3750000   0.7500000   0.3125000), wk =   0.0234375
        k(   92) = (   0.3750000   0.8125000   0.3750000), wk =   0.0117188
        k(   93) = (   0.0000000   0.1875000   0.0000000), wk =   0.0039062
        k(   94) = (   0.0625000   0.2500000   0.0000000), wk =   0.0117188
        k(   95) = (   0.1250000   0.3125000   0.0000000), wk =   0.0117188
        k(   96) = (   0.1875000   0.3750000   0.0000000), wk =   0.0117188
        k(   97) = (   0.2500000   0.4375000   0.0000000), wk =   0.0117188
        k(   98) = (   0.3125000   0.5000000   0.0000000), wk =   0.0117188
        k(   99) = (   0.0625000   0.3125000   0.0625000), wk =   0.0117188
        k(  100) = (   0.1250000   0.3750000   0.0625000), wk =   0.0234375
        k(  101) = (   0.1875000   0.4375000   0.0625000), wk =   0.0234375
        k(  102) = (   0.2500000   0.5000000   0.0625000), wk =   0.0234375
        k(  103) = (   0.3125000   0.5625000   0.0625000), wk =   0.0234375
        k(  104) = (   0.1250000   0.4375000   0.1250000), wk =   0.0117188
        k(  105) = (   0.1875000   0.5000000   0.1250000), wk =   0.0234375
        k(  106) = (   0.2500000   0.5625000   0.1250000), wk =   0.0234375
        k(  107) = (   0.3125000   0.6250000   0.1250000), wk =   0.0234375
        k(  108) = (   0.1875000   0.5625000   0.1875000), wk =   0.0117188
        k(  109) = (   0.2500000   0.6250000   0.1875000), wk =   0.0234375
        k(  110) = (   0.2500000   0.6875000   0.2500000), wk =   0.0117188
        k(  111) = (   0.0000000   0.3125000   0.0000000), wk =   0.0039062
        k(  112) = (   0.0625000   0.3750000   0.0000000), wk =   0.0117188
        k(  113) = (   0.1250000   0.4375000   0.0000000), wk =   0.0117188
        k(  114) = (   0.1875000   0.5000000   0.0000000), wk =   0.0117188
        k(  115) = (   0.0625000   0.4375000   0.0625000), wk =   0.0117188
        k(  116) = (   0.1250000   0.5000000   0.0625000), wk =   0.0234375
        k(  117) = (   0.1875000   0.5625000   0.0625000), wk =   0.0234375
        k(  118) = (   0.1250000   0.5625000   0.1250000), wk =   0.0117188
        k(  119) = (   0.0000000   0.4375000   0.0000000), wk =   0.0039062
        k(  120) = (   0.0625000   0.5000000   0.0000000), wk =   0.0117188

     Dense  grid:     5601 G-vectors     FFT dimensions: (  25,  25,  25)

     Smooth grid:     1067 G-vectors     FFT dimensions: (  15,  15,  15)

     Largest allocated arrays     est. size (Mb)     dimensions
        Kohn-Sham Wavefunctions         0.09 Mb     (     144,   40)
        NL pseudopotentials             0.04 Mb     (     144,   18)
        Each V/rho on FFT grid          0.48 Mb     (   15625,   2)
        Each G-vector array             0.04 Mb     (    5601)
        G-vector shells                 0.00 Mb     (     104)
     Largest temporary arrays     est. size (Mb)     dimensions
        Each subspace H/S matrix        0.02 Mb     (      40,   40)
        Each <psi_i|beta_j> matrix      0.01 Mb     (      18,   40)

     Check: negative/imaginary core charge=   -0.000015    0.000000

     The potential is recalculated from file :
     ./ni.save/charge-density.dat

     Starting wfc are    6 randomized atomic wfcs +   34 random wfc

     Band Structure Calculation
     CG style diagonalization

     Computing kpt #:     1
     total cpu time spent up to now is        1.0 secs

     Computing kpt #:     2
     total cpu time spent up to now is        1.3 secs

     Computing kpt #:     3
     total cpu time spent up to now is        1.5 secs

     Computing kpt #:     4
     total cpu time spent up to now is        1.8 secs

     Computing kpt #:     5
     total cpu time spent up to now is        2.0 secs

     Computing kpt #:     6
     total cpu time spent up to now is        2.3 secs

     Computing kpt #:     7
     total cpu time spent up to now is        2.5 secs

     Computing kpt #:     8
     total cpu time spent up to now is        2.8 secs

     Computing kpt #:     9
     total cpu time spent up to now is        3.1 secs

     Computing kpt #:    10
     total cpu time spent up to now is        3.3 secs

     Computing kpt #:    11
     total cpu time spent up to now is        3.6 secs

     Computing kpt #:    12
     total cpu time spent up to now is        3.8 secs

     Computing kpt #:    13
     total cpu time spent up to now is        4.1 secs

     Computing kpt #:    14
     total cpu time spent up to now is        4.3 secs

     Computing kpt #:    15
     total cpu time spent up to now is        4.6 secs

     Computing kpt #:    16
     total cpu time spent up to now is        4.8 secs

     Computing kpt #:    17
     total cpu time spent up to now is        5.1 secs

     Computing kpt #:    18
     total cpu time spent up to now is        5.3 secs

     Computing kpt #:    19
     total cpu time spent up to now is        5.6 secs

     Computing kpt #:    20
     total cpu time spent up to now is        5.8 secs

     Computing kpt #:    21
     total cpu time spent up to now is        6.1 secs

     Computing kpt #:    22
     total cpu time spent up to now is        6.3 secs

     Computing kpt #:    23
     total cpu time spent up to now is        6.5 secs

     Computing kpt #:    24
     total cpu time spent up to now is        6.8 secs

     Computing kpt #:    25
     total cpu time spent up to now is        7.0 secs

     Computing kpt #:    26
     total cpu time spent up to now is        7.3 secs

     Computing kpt #:    27
     total cpu time spent up to now is        7.5 secs

     Computing kpt #:    28
     total cpu time spent up to now is        7.7 secs

     Computing kpt #:    29
     total cpu time spent up to now is        8.0 secs

     Computing kpt #:    30
     total cpu time spent up to now is        8.3 secs

     Computing kpt #:    31
     total cpu time spent up to now is        8.5 secs

     Computing kpt #:    32
     total cpu time spent up to now is        8.8 secs

     Computing kpt #:    33
     total cpu time spent up to now is        9.0 secs

     Computing kpt #:    34
     total cpu time spent up to now is        9.2 secs

     Computing kpt #:    35
     total cpu time spent up to now is        9.5 secs

     Computing kpt #:    36
     total cpu time spent up to now is        9.8 secs

     Computing kpt #:    37
     total cpu time spent up to now is       10.2 secs

     Computing kpt #:    38
     total cpu time spent up to now is       10.5 secs

     Computing kpt #:    39
     total cpu time spent up to now is       10.9 secs

     Computing kpt #:    40
     total cpu time spent up to now is       11.1 secs

     Computing kpt #:    41
     total cpu time spent up to now is       11.4 secs

     Computing kpt #:    42
     total cpu time spent up to now is       11.6 secs

     Computing kpt #:    43
     total cpu time spent up to now is       11.9 secs

     Computing kpt #:    44
     total cpu time spent up to now is       12.1 secs

     Computing kpt #:    45
     total cpu time spent up to now is       12.3 secs

     Computing kpt #:    46
     total cpu time spent up to now is       12.6 secs

     Computing kpt #:    47
     total cpu time spent up to now is       12.8 secs

     Computing kpt #:    48
     total cpu time spent up to now is       13.1 secs

     Computing kpt #:    49
     total cpu time spent up to now is       13.3 secs

     Computing kpt #:    50
     total cpu time spent up to now is       13.6 secs

     Computing kpt #:    51
     total cpu time spent up to now is       13.8 secs

     Computing kpt #:    52
     total cpu time spent up to now is       14.0 secs

     Computing kpt #:    53
     total cpu time spent up to now is       14.3 secs

     Computing kpt #:    54
     total cpu time spent up to now is       14.6 secs

     Computing kpt #:    55
     total cpu time spent up to now is       14.8 secs

     Computing kpt #:    56
     total cpu time spent up to now is       15.1 secs

     Computing kpt #:    57
     total cpu time spent up to now is       15.3 secs

     Computing kpt #:    58
     total cpu time spent up to now is       15.6 secs

     Computing kpt #:    59
     total cpu time spent up to now is       15.8 secs

     Computing kpt #:    60
     total cpu time spent up to now is       16.1 secs

     Computing kpt #:    61
     total cpu time spent up to now is       16.3 secs

     Computing kpt #:    62
     total cpu time spent up to now is       16.6 secs

     Computing kpt #:    63
     total cpu time spent up to now is       16.8 secs

     Computing kpt #:    64
     total cpu time spent up to now is       17.1 secs

     Computing kpt #:    65
     total cpu time spent up to now is       17.4 secs

     Computing kpt #:    66
     total cpu time spent up to now is       17.6 secs

     Computing kpt #:    67
     total cpu time spent up to now is       17.9 secs

     Computing kpt #:    68
     total cpu time spent up to now is       18.1 secs

     Computing kpt #:    69
     total cpu time spent up to now is       18.4 secs

     Computing kpt #:    70
     total cpu time spent up to now is       18.6 secs

     Computing kpt #:    71
     total cpu time spent up to now is       18.9 secs

     Computing kpt #:    72
     total cpu time spent up to now is       19.1 secs

     Computing kpt #:    73
     total cpu time spent up to now is       19.4 secs

     Computing kpt #:    74
     total cpu time spent up to now is       19.6 secs

     Computing kpt #:    75
     total cpu time spent up to now is       19.9 secs

     Computing kpt #:    76
     total cpu time spent up to now is       20.1 secs

     Computing kpt #:    77
     total cpu time spent up to now is       20.4 secs

     Computing kpt #:    78
     total cpu time spent up to now is       20.6 secs

     Computing kpt #:    79
     total cpu time spent up to now is       20.8 secs

     Computing kpt #:    80
     total cpu time spent up to now is       21.1 secs

     Computing kpt #:    81
     total cpu time spent up to now is       21.3 secs

     Computing kpt #:    82
     total cpu time spent up to now is       21.6 secs

     Computing kpt #:    83
     total cpu time spent up to now is       21.8 secs

     Computing kpt #:    84
     total cpu time spent up to now is       22.0 secs

     Computing kpt #:    85
     total cpu time spent up to now is       22.3 secs

     Computing kpt #:    86
     total cpu time spent up to now is       22.7 secs

     Computing kpt #:    87
     total cpu time spent up to now is       23.0 secs

     Computing kpt #:    88
     total cpu time spent up to now is       23.2 secs

     Computing kpt #:    89
     total cpu time spent up to now is       23.6 secs

     Computing kpt #:    90
     total cpu time spent up to now is       23.8 secs

     Computing kpt #:    91
     total cpu time spent up to now is       24.1 secs

     Computing kpt #:    92
     total cpu time spent up to now is       24.3 secs

     Computing kpt #:    93
     total cpu time spent up to now is       24.5 secs

     Computing kpt #:    94
     total cpu time spent up to now is       24.8 secs

     Computing kpt #:    95
     total cpu time spent up to now is       25.0 secs

     Computing kpt #:    96
     total cpu time spent up to now is       25.3 secs

     Computing kpt #:    97
     total cpu time spent up to now is       25.5 secs

     Computing kpt #:    98
     total cpu time spent up to now is       25.8 secs

     Computing kpt #:    99
     total cpu time spent up to now is       26.0 secs

     Computing kpt #:   100
     total cpu time spent up to now is       26.3 secs

     Computing kpt #:   101
     total cpu time spent up to now is       26.5 secs

     Computing kpt #:   102
     total cpu time spent up to now is       26.8 secs

     Computing kpt #:   103
     total cpu time spent up to now is       27.0 secs

     Computing kpt #:   104
     total cpu time spent up to now is       27.5 secs

     Computing kpt #:   105
     total cpu time spent up to now is       27.8 secs

     Computing kpt #:   106
     total cpu time spent up to now is       28.0 secs

     Computing kpt #:   107
     total cpu time spent up to now is       28.3 secs

     Computing kpt #:   108
     total cpu time spent up to now is       28.5 secs

     Computing kpt #:   109
     total cpu time spent up to now is       28.7 secs

     Computing kpt #:   110
     total cpu time spent up to now is       29.0 secs

     Computing kpt #:   111
     total cpu time spent up to now is       29.2 secs

     Computing kpt #:   112
     total cpu time spent up to now is       29.4 secs

     Computing kpt #:   113
     total cpu time spent up to now is       29.7 secs

     Computing kpt #:   114
     total cpu time spent up to now is       29.9 secs

     Computing kpt #:   115
     total cpu time spent up to now is       30.2 secs

     Computing kpt #:   116
     total cpu time spent up to now is       30.4 secs

     Computing kpt #:   117
     total cpu time spent up to now is       30.7 secs

     Computing kpt #:   118
     total cpu time spent up to now is       30.9 secs

     Computing kpt #:   119
     total cpu time spent up to now is       31.1 secs

     Computing kpt #:   120
     total cpu time spent up to now is       31.4 secs

     ethr =  1.00E-10,  avg # of iterations = 31.7

     total cpu time spent up to now is       31.4 secs

     End of band structure calculation

 ------ SPIN UP ------------


          k = 0.0625 0.0625 0.0625 (   137 PWs)   bands (ev):

     5.9120  12.6408  12.7242  12.7242  13.9680  13.9680  39.4726  42.4109
    44.0014  44.0014  48.6694  48.6694  48.8921  51.8765  56.5518  56.5518
    57.3847  59.9069  63.8757  63.8757  84.5624  94.6098  94.6098  95.5018
   106.0655 106.0655 106.8960 110.5194 110.5194 115.9297 115.9297 116.0446
   125.5037 127.9632 127.9632 130.7870 131.2094 131.4410 131.8992 131.8992

     occupation numbers 
     1.0000   1.0000   1.0000   1.0000   1.0000   1.0000  -0.0000  -0.0000
    -0.0000  -0.0000  -0.0000  -0.0000  -0.0000  -0.0000  -0.0000  -0.0000
    -0.0000  -0.0000  -0.0000  -0.0000  -0.0000  -0.0000  -0.0000  -0.0000
    -0.0000  -0.0000  -0.0000  -0.0000  -0.0000  -0.0000  -0.0000  -0.0000
    -0.0000  -0.0000  -0.0000  -0.0000  -0.0000  -0.0000  -0.0000  -0.0000

          k = 0.0625 0.0625 0.1875 (   137 PWs)   bands (ev):

     6.3391  12.4946  12.8368  12.8417  13.8271  14.0344  38.2934  40.8114
    41.8233  43.8807  48.4195  50.4225  50.4831  52.2559  54.8028  57.8127
    58.0570  60.7790  64.0382  68.0986  84.9593  92.0367  94.0878  95.3441
   102.5606 104.4742 106.0208 110.8882 113.4735 115.0642 116.9873 117.5796
   122.8479 124.3150 125.0211 127.0929 127.6066 130.2462 132.3641 132.5074

     occupation numbers 
     1.0000   1.0000   1.0000   1.0000   1.0000   1.0000  -0.0000  -0.0000
    -0.0000  -0.0000  -0.0000  -0.0000  -0.0000  -0.0000  -0.0000  -0.0000
    -0.0000  -0.0000  -0.0000  -0.0000  -0.0000  -0.0000  -0.0000  -0.0000
    -0.0000  -0.0000  -0.0000  -0.0000  -0.0000  -0.0000  -0.0000  -0.0000
    -0.0000  -0.0000  -0.0000  -0.0000  -0.0000  -0.0000  -0.0000  -0.0000

          k = 0.0625 0.0625 0.3125 (   136 PWs)   bands (ev):

     7.1584  12.2116  13.0532  13.0705  13.6135  14.1576  36.6039  39.3136
    39.3758  41.8863  47.2715  51.0236  52.4530  53.1303  57.8632  58.9643
    59.8450  62.5489  64.5726  72.2144  85.7527  88.8630  92.8177  94.0259
    99.0482 102.7935 104.4668 112.0683 113.1122 113.9041 116.5147 117.0435
   120.3728 120.8924 124.3925 124.9871 125.1808 128.0323 131.4383 132.4986

     occupation numbers 
     1.0000   1.0000   1.0000   1.0000   1.0000   1.0000  -0.0000  -0.0000
    -0.0000  -0.0000  -0.0000  -0.0000  -0.0000  -0.0000  -0.0000  -0.0000
    -0.0000  -0.0000  -0.0000  -0.0000  -0.0000  -0.0000  -0.0000  -0.0000
    -0.0000  -0.0000  -0.0000  -0.0000  -0.0000  -0.0000  -0.0000  -0.0000
    -0.0000  -0.0000  -0.0000  -0.0000  -0.0000  -0.0000  -0.0000  -0.0000

          k = 0.0625 0.0625 0.4375 (   135 PWs)   bands (ev):

     8.2720  11.8512  13.1523  13.3962  13.6440  14.3195  34.7985  36.9241
    37.9143  39.4453  44.2035  53.5609  54.5291  56.1366  59.2912  61.4656
    61.6321  65.4332  66.1213  74.9441  85.7436  86.3187  91.1036  91.5339
    96.1748 102.4841 104.3487 107.7239 109.1396 109.7514 116.2184 117.2124
   120.3303 120.4615 123.8425 125.3425 125.4842 126.5562 128.3902 130.5390

     occupation numbers 
     1.0000   1.0000   1.0000   1.0000   1.0000   1.0000  -0.0000  -0.0000
    -0.0000  -0.0000  -0.0000  -0.0000  -0.0000  -0.0000  -0.0000  -0.0000
    -0.0000  -0.0000  -0.0000  -0.0000  -0.0000  -0.0000  -0.0000  -0.0000
    -0.0000  -0.0000  -0.0000  -0.0000  -0.0000  -0.0000  -0.0000  -0.0000
    -0.0000  -0.0000  -0.0000  -0.0000  -0.0000  -0.0000  -0.0000  -0.0000

          k = 0.0625 0.0625 0.5625 (   135 PWs)   bands (ev):

     9.4204  11.4734  13.1998  13.7882  14.1068  14.4965  33.0563  34.8023
    35.0428  38.0815  42.3411  56.3432  56.7696  59.3607  60.1959  62.5671
    64.6589  68.9194  68.9510  76.0232  82.8211  84.8642  87.3102  91.1549
    95.8779  99.6739 103.4600 104.3985 105.7051 107.4588 114.1665 115.7310
   120.7899 121.1785 123.6182 125.7459 125.9318 126.5087 127.7328 129.3297

     occupation numbers 
     1.0000   1.0000   1.0000   1.0000   1.0000   1.0002  -0.0000  -0.0000
    -0.0000  -0.0000  -0.0000  -0.0000  -0.0000  -0.0000  -0.0000  -0.0000
    -0.0000  -0.0000  -0.0000  -0.0000  -0.0000  -0.0000  -0.0000  -0.0000
    -0.0000  -0.0000  -0.0000  -0.0000  -0.0000  -0.0000  -0.0000  -0.0000
    -0.0000  -0.0000  -0.0000  -0.0000  -0.0000  -0.0000  -0.0000  -0.0000

          k = 0.0625 0.0625 0.6875 (   131 PWs)   bands (ev):

    10.1168  11.1352  13.7250  14.1935  14.6635  14.9107  31.2035  31.8424
    33.0618  37.4811  41.3868  58.9455  58.9714  60.4262  63.4589  64.1576
    67.0087  72.1951  72.6483  76.1915  79.9366  81.9919  83.8970  91.2149
    93.4745  97.1255  99.5755 101.4997 106.9149 109.2147 112.8287 114.7613
   119.7017 119.9951 123.3341 124.4144 125.7132 126.0284 127.3191 129.4932

     occupation numbers 
     1.0000   1.0000   1.0000   1.0000   1.0028   1.0323  -0.0000  -0.0000
    -0.0000  -0.0000  -0.0000  -0.0000  -0.0000  -0.0000  -0.0000  -0.0000
    -0.0000  -0.0000  -0.0000  -0.0000  -0.0000  -0.0000  -0.0000  -0.0000
    -0.0000  -0.0000  -0.0000  -0.0000  -0.0000  -0.0000  -0.0000  -0.0000
    -0.0000  -0.0000  -0.0000  -0.0000  -0.0000  -0.0000  -0.0000  -0.0000

          k = 0.0625 0.0625 0.8125 (   131 PWs)   bands (ev):

    10.2641  10.8831  14.3323  14.5333  14.7993  16.3748  28.0533  30.5460
    31.8085  37.1469  40.9315  60.0061  60.4728  62.6544  65.2498  67.7773
    69.1725  74.3469  74.9284  76.3696  77.2112  80.2217  81.9913  87.4351
    91.2322  95.3972  95.7623 102.8541 108.4795 111.4694 111.8686 113.9297
   118.3096 119.7283 121.3993 122.9459 124.6492 125.2840 126.1219 126.9066

     occupation numbers 
     1.0000   1.0000   1.0000   1.0003   1.0146  -0.0000  -0.0000  -0.0000
    -0.0000  -0.0000  -0.0000  -0.0000  -0.0000  -0.0000  -0.0000  -0.0000
    -0.0000  -0.0000  -0.0000  -0.0000  -0.0000  -0.0000  -0.0000  -0.0000
    -0.0000  -0.0000  -0.0000  -0.0000  -0.0000  -0.0000  -0.0000  -0.0000
    -0.0000  -0.0000  -0.0000  -0.0000  -0.0000  -0.0000  -0.0000  -0.0000

          k = 0.0625 0.0625 0.9375 (   131 PWs)   bands (ev):

    10.2382  10.7491  14.6339  14.7184  14.8880  17.9392  25.6722  29.9312
    31.1465  36.9913  40.7601  60.3154  61.0296  64.7836  68.1390  68.8144
    71.9166  72.0497  74.2591  77.4897  77.6747  80.7852  81.6440  82.6814
    89.7926  93.2700  94.9382 104.9826 109.7202 111.2144 112.7493 112.8427
   117.0109 119.5189 120.1236 122.2989 123.9111 124.5787 125.1812 125.8527

     occupation numbers 
     1.0000   1.0000   1.0018   1.0059   1.0290  -0.0000  -0.0000  -0.0000
    -0.0000  -0.0000  -0.0000  -0.0000  -0.0000  -0.0000  -0.0000  -0.0000
    -0.0000  -0.0000  -0.0000  -0.0000  -0.0000  -0.0000  -0.0000  -0.0000
    -0.0000  -0.0000  -0.0000  -0.0000  -0.0000  -0.0000  -0.0000  -0.0000
    -0.0000  -0.0000  -0.0000  -0.0000  -0.0000  -0.0000  -0.0000  -0.0000

          k = 0.0625 0.1875 0.1875 (   140 PWs)   bands (ev):

     6.7533  12.4205  12.8941  12.8982  13.8054  14.0438  36.2757  39.1047
    42.8592  45.1750  47.0566  48.7693  51.8606  52.4445  55.4609  57.4945
    58.8005  61.9422  66.6449  69.7516  84.8747  90.1676  92.4643  95.5216
   101.6995 103.4723 105.5063 110.3325 113.8277 115.9885 116.4695 119.9474
   121.3731 121.6301 122.8070 123.0653 127.9110 129.4900 130.7790 131.5636

     occupation numbers 
     1.0000   1.0000   1.0000   1.0000   1.0000   1.0000  -0.0000  -0.0000
    -0.0000  -0.0000  -0.0000  -0.0000  -0.0000  -0.0000  -0.0000  -0.0000
    -0.0000  -0.0000  -0.0000  -0.0000  -0.0000  -0.0000  -0.0000  -0.0000
    -0.0000  -0.0000  -0.0000  -0.0000  -0.0000  -0.0000  -0.0000  -0.0000
    -0.0000  -0.0000  -0.0000  -0.0000  -0.0000  -0.0000  -0.0000  -0.0000

          k = 0.0625 0.1875 0.3125 (   138 PWs)   bands (ev):

     7.5453  12.2053  12.9785  13.0820  13.6876  14.2133  34.2598  37.1140
    41.9175  43.8706  47.3556  49.1254  50.5092  54.4579  56.6063  59.7918
    60.8213  63.9235  67.6194  73.4113  83.4907  88.4090  91.5146  94.6353
    99.3225 102.0942 104.4932 111.4067 112.2094 113.6537 115.5220 118.5783
   119.3242 119.9328 122.1273 124.3455 125.1262 126.2269 129.0256 131.0695

     occupation numbers 
     1.0000   1.0000   1.0000   1.0000   1.0000   1.0000  -0.0000  -0.0000
    -0.0000  -0.0000  -0.0000  -0.0000  -0.0000  -0.0000  -0.0000  -0.0000
    -0.0000  -0.0000  -0.0000  -0.0000  -0.0000  -0.0000  -0.0000  -0.0000
    -0.0000  -0.0000  -0.0000  -0.0000  -0.0000  -0.0000  -0.0000  -0.0000
    -0.0000  -0.0000  -0.0000  -0.0000  -0.0000  -0.0000  -0.0000  -0.0000

          k = 0.0625 0.1875 0.4375 (   138 PWs)   bands (ev):

     8.6158  11.8974  12.9172  13.3639  13.8104  14.4742  32.4183  35.2313
    39.3633  41.4740  46.0912  50.6165  52.7448  56.8434  58.4555  61.0459
    64.1127  66.8000  68.6043  75.8690  81.6689  86.2950  91.6562  92.8837
    97.4650 100.4724 103.9615 106.4691 109.2647 111.0586 114.9789 116.7373
   117.3750 120.2416 121.6111 122.9619 125.6164 126.7975 128.7101 130.4322

     occupation numbers 
     1.0000   1.0000   1.0000   1.0000   1.0000   1.0001  -0.0000  -0.0000
    -0.0000  -0.0000  -0.0000  -0.0000  -0.0000  -0.0000  -0.0000  -0.0000
    -0.0000  -0.0000  -0.0000  -0.0000  -0.0000  -0.0000  -0.0000  -0.0000
    -0.0000  -0.0000  -0.0000  -0.0000  -0.0000  -0.0000  -0.0000  -0.0000
    -0.0000  -0.0000  -0.0000  -0.0000  -0.0000  -0.0000  -0.0000  -0.0000

          k = 0.0625 0.1875 0.5625 (   138 PWs)   bands (ev):

     9.7157  11.5629  12.8195  13.7146  14.2268  14.8749  30.7920  33.4968
    35.6959  40.1699  44.6414  52.7374  55.7041  59.0109  60.4057  62.9537
    67.1276  69.7665  70.4758  75.0037  81.6459  84.5202  88.1793  94.2251
    95.1646  98.4339 102.2204 103.9600 106.0093 107.5953 113.3246 115.3938
   117.1806 119.7810 121.2562 121.4727 126.2053 128.3317 128.8558 131.7513

     occupation numbers 
     1.0000   1.0000   1.0000   1.0000   1.0000   1.0269  -0.0000  -0.0000
    -0.0000  -0.0000  -0.0000  -0.0000  -0.0000  -0.0000  -0.0000  -0.0000
    -0.0000  -0.0000  -0.0000  -0.0000  -0.0000  -0.0000  -0.0000  -0.0000
    -0.0000  -0.0000  -0.0000  -0.0000  -0.0000  -0.0000  -0.0000  -0.0000
    -0.0000  -0.0000  -0.0000  -0.0000  -0.0000  -0.0000  -0.0000  -0.0000

          k = 0.0625 0.1875 0.6875 (   135 PWs)   bands (ev):

    10.3796  11.2569  13.0678  14.0988  14.5784  15.7752  29.4220  31.5623
    32.4412  39.3872  43.7396  54.7173  58.7763  59.9692  63.4370  65.1469
    69.4897  70.7128  73.5808  74.8820  80.0232  83.1863  86.1996  92.3658
    93.0690  95.6104  99.4252 103.7069 104.4279 107.8949 112.3876 113.8861
   116.3481 118.4969 120.2982 121.6710 126.0775 127.6717 129.8987 132.4130

     occupation numbers 
     1.0000   1.0000   1.0000   1.0000   1.0007  -0.0148  -0.0000  -0.0000
    -0.0000  -0.0000  -0.0000  -0.0000  -0.0000  -0.0000  -0.0000  -0.0000
    -0.0000  -0.0000  -0.0000  -0.0000  -0.0000  -0.0000  -0.0000  -0.0000
    -0.0000  -0.0000  -0.0000  -0.0000  -0.0000  -0.0000  -0.0000  -0.0000
    -0.0000  -0.0000  -0.0000  -0.0000  -0.0000  -0.0000  -0.0000  -0.0000

          k = 0.0625 0.1875 0.8125 (   131 PWs)   bands (ev):

    10.5006  11.0259  13.5618  14.4147  14.7607  17.3453  28.0925  28.6881
    31.1643  38.9246  43.2535  56.5592  60.0139  61.9997  65.6590  67.8251
    69.1075  72.6068  75.5573  77.3404  77.6499  82.0734  84.3105  87.7704
    91.3096  95.3640  95.6558 103.8762 106.3615 109.4170 111.6675 112.3186
   115.5520 118.1155 119.4272 120.0198 125.4289 126.5634 129.4075 129.9100

     occupation numbers 
     1.0000   1.0000   1.0000   1.0000   1.0097  -0.0000  -0.0000  -0.0000
    -0.0000  -0.0000  -0.0000  -0.0000  -0.0000  -0.0000  -0.0000  -0.0000
    -0.0000  -0.0000  -0.0000  -0.0000  -0.0000  -0.0000  -0.0000  -0.0000
    -0.0000  -0.0000  -0.0000  -0.0000  -0.0000  -0.0000  -0.0000  -0.0000
    -0.0000  -0.0000  -0.0000  -0.0000  -0.0000  -0.0000  -0.0000  -0.0000

          k = 0.0625 0.1875 0.9375 (   129 PWs)   bands (ev):

    10.4591  10.9032  13.9050  14.5428  14.8711  18.9890  25.7862  27.9628
    30.5807  38.7089  43.0518  57.9494  60.0602  63.5967  66.4068  68.4082
    71.6344  73.4627  75.5609  77.5040  77.6454  81.7750  84.2883  85.4168
    87.6132  92.6459  97.2404 104.3720 108.7734 110.0274 110.9998 111.6144
   114.5496 115.9424 118.6518 120.1704 124.9305 125.6458 128.8767 129.4943

     occupation numbers 
     1.0000   1.0000   1.0000   1.0004   1.0262  -0.0000  -0.0000  -0.0000
    -0.0000  -0.0000  -0.0000  -0.0000  -0.0000  -0.0000  -0.0000  -0.0000
    -0.0000  -0.0000  -0.0000  -0.0000  -0.0000  -0.0000  -0.0000  -0.0000
    -0.0000  -0.0000  -0.0000  -0.0000  -0.0000  -0.0000  -0.0000  -0.0000
    -0.0000  -0.0000  -0.0000  -0.0000  -0.0000  -0.0000  -0.0000  -0.0000

          k = 0.0625 0.3125 0.3125 (   140 PWs)   bands (ev):

     8.2768  12.1325  12.9071  13.1715  13.6348  14.4859  32.1373  35.0424
    43.2095  45.3208  45.6960  47.5949  50.8638  55.2864  56.3508  60.4492
    63.6796  66.2374  69.9711  76.2048  79.4271  88.6737  90.4772  94.9570
    96.3133 103.5962 104.0884 109.0227 110.2533 112.4297 112.4303 118.0748
   120.0082 120.2093 120.8681 121.9849 123.0010 125.0885 127.8469 130.3051

     occupation numbers 
     1.0000   1.0000   1.0000   1.0000   1.0000   1.0001  -0.0000  -0.0000
    -0.0000  -0.0000  -0.0000  -0.0000  -0.0000  -0.0000  -0.0000  -0.0000
    -0.0000  -0.0000  -0.0000  -0.0000  -0.0000  -0.0000  -0.0000  -0.0000
    -0.0000  -0.0000  -0.0000  -0.0000  -0.0000  -0.0000  -0.0000  -0.0000
    -0.0000  -0.0000  -0.0000  -0.0000  -0.0000  -0.0000  -0.0000  -0.0000

          k = 0.0625 0.3125 0.4375 (   140 PWs)   bands (ev):

     9.2453  11.9638  12.7389  13.3511  13.7369  14.9235  30.2769  33.2185
    40.3512  44.1147  46.1121  49.2565  51.5946  56.9442  58.0361  61.4062
    66.1070  69.1907  72.0347  75.0646  80.1508  86.0567  91.3178  93.3663
    96.2862 102.1078 103.5811 103.9557 108.2366 109.3036 112.3109 115.2755
   116.8706 119.7910 120.4535 122.0983 124.1316 125.4792 127.8325 130.5571

     occupation numbers 
     1.0000   1.0000   1.0000   1.0000   1.0000   1.0337  -0.0000  -0.0000
    -0.0000  -0.0000  -0.0000  -0.0000  -0.0000  -0.0000  -0.0000  -0.0000
    -0.0000  -0.0000  -0.0000  -0.0000  -0.0000  -0.0000  -0.0000  -0.0000
    -0.0000  -0.0000  -0.0000  -0.0000  -0.0000  -0.0000  -0.0000  -0.0000
    -0.0000  -0.0000  -0.0000  -0.0000  -0.0000  -0.0000  -0.0000  -0.0000

          k = 0.0625 0.3125 0.5625 (   138 PWs)   bands (ev):

    10.2215  11.7379  12.4844  13.6353  14.0809  15.5994  28.6802  31.6639
    36.3665  43.1460  46.3701  50.1943  54.2856  58.8845  60.4073  63.2518
    67.7172  70.5682  73.1299  74.7470  82.5451  84.8320  87.9143  94.3902
    96.0552  98.4193 100.4368 102.8724 106.1753 107.5006 109.6773 111.6350
   116.8745 118.2191 120.4645 121.2851 126.2287 128.8449 129.6001 132.2118

     occupation numbers 
     1.0000   1.0000   1.0000   1.0000   1.0000  -0.0344  -0.0000  -0.0000
    -0.0000  -0.0000  -0.0000  -0.0000  -0.0000  -0.0000  -0.0000  -0.0000
    -0.0000  -0.0000  -0.0000  -0.0000  -0.0000  -0.0000  -0.0000  -0.0000
    -0.0000  -0.0000  -0.0000  -0.0000  -0.0000  -0.0000  -0.0000  -0.0000
    -0.0000  -0.0000  -0.0000  -0.0000  -0.0000  -0.0000  -0.0000  -0.0000

          k = 0.0625 0.3125 0.6875 (   133 PWs)   bands (ev):

    10.8207  11.5001  12.4580  13.9660  14.4295  16.7891  27.3681  30.3867
    32.5391  42.3911  46.3805  51.1213  57.9509  59.6349  63.2597  65.7825
    67.4206  69.7156  76.2287  77.5132  80.4516  83.9595  88.4898  90.9614
    94.5848  95.7691  98.5237 102.5195 105.3196 106.2393 107.6613 110.2388
   115.4598 117.5768 120.0596 121.9793 126.3125 130.5224 132.8873 134.1778

     occupation numbers 
     1.0000   1.0000   1.0000   1.0000   1.0000  -0.0000  -0.0000  -0.0000
    -0.0000  -0.0000  -0.0000  -0.0000  -0.0000  -0.0000  -0.0000  -0.0000
    -0.0000  -0.0000  -0.0000  -0.0000  -0.0000  -0.0000  -0.0000  -0.0000
    -0.0000  -0.0000  -0.0000  -0.0000  -0.0000  -0.0000  -0.0000  -0.0000
    -0.0000  -0.0000  -0.0000  -0.0000  -0.0000  -0.0000  -0.0000  -0.0000

          k = 0.0625 0.3125 0.8125 (   130 PWs)   bands (ev):

    10.8993  11.3076  12.7656  14.1834  14.6926  18.5761  26.3891  28.7464
    29.8042  41.8921  46.3372  52.4239  59.4901  61.6485  64.2343  65.6953
    69.7273  71.9894  76.2079  79.4263  80.2673  82.6903  86.0926  88.8403
    92.1182  95.3290  97.0121 101.5781 105.1364 106.6381 107.7877 110.1867
   113.7125 116.5198 119.2991 121.7481 125.9960 129.8247 131.8765 133.6072

     occupation numbers 
     1.0000   1.0000   1.0000   1.0000   1.0042  -0.0000  -0.0000  -0.0000
    -0.0000  -0.0000  -0.0000  -0.0000  -0.0000  -0.0000  -0.0000  -0.0000
    -0.0000  -0.0000  -0.0000  -0.0000  -0.0000  -0.0000  -0.0000  -0.0000
    -0.0000  -0.0000  -0.0000  -0.0000  -0.0000  -0.0000  -0.0000  -0.0000
    -0.0000  -0.0000  -0.0000  -0.0000  -0.0000  -0.0000  -0.0000  -0.0000

          k = 0.0625 0.3125 0.9375 (   131 PWs)   bands (ev):

    10.8251  11.2096  13.0474  14.2312  14.8641  20.4643  25.6517  26.3857
    29.2118  41.6455  46.3145  53.6441  58.6667  63.3148  63.9469  67.9840
    71.6722  72.9971  75.5143  78.7805  81.5289  82.5581  83.7086  88.4337
    90.3552  91.8373  98.7400 102.6345 104.7927 107.1278 108.8434 109.5326
   111.9200 115.6364 118.7708 120.2562 125.7034 129.3243 132.8380 133.5634

     occupation numbers 
     1.0000   1.0000   1.0000   1.0000   1.0250  -0.0000  -0.0000  -0.0000
    -0.0000  -0.0000  -0.0000  -0.0000  -0.0000  -0.0000  -0.0000  -0.0000
    -0.0000  -0.0000  -0.0000  -0.0000  -0.0000  -0.0000  -0.0000  -0.0000
    -0.0000  -0.0000  -0.0000  -0.0000  -0.0000  -0.0000  -0.0000  -0.0000
    -0.0000  -0.0000  -0.0000  -0.0000  -0.0000  -0.0000  -0.0000  -0.0000

          k = 0.0625 0.4375 0.4375 (   137 PWs)   bands (ev):

    10.0258  12.0022  12.5672  13.3433  13.7723  15.5605  28.4101  31.4586
    41.0969  41.6871  47.4464  49.6323  53.1803  56.2341  59.2963  62.4118
    67.2183  70.3283  73.3790  75.7973  82.4043  84.6128  90.2444  94.0407
    95.4658 100.0456 101.5129 103.9238 105.5852 108.0134 109.0837 114.2799
   116.4628 118.8836 120.9968 122.2972 122.9738 123.1406 127.1978 132.7591

     occupation numbers 
     1.0000   1.0000   1.0000   1.0000   1.0000  -0.0253  -0.0000  -0.0000
    -0.0000  -0.0000  -0.0000  -0.0000  -0.0000  -0.0000  -0.0000  -0.0000
    -0.0000  -0.0000  -0.0000  -0.0000  -0.0000  -0.0000  -0.0000  -0.0000
    -0.0000  -0.0000  -0.0000  -0.0000  -0.0000  -0.0000  -0.0000  -0.0000
    -0.0000  -0.0000  -0.0000  -0.0000  -0.0000  -0.0000  -0.0000  -0.0000

          k = 0.0625 0.4375 0.5625 (   137 PWs)   bands (ev):

    10.7531  11.9721  12.2598  13.5029  14.0309  16.4895  26.8152  30.0155
    37.3166  42.5581  47.3171  52.2919  53.5798  58.1979  60.5544  64.0510
    66.1590  69.1609  76.2135  79.2310  82.0742  86.1157  87.7314  93.3808
    95.3174  96.9824  99.7805 101.1929 104.4560 105.4632 108.5312 113.0786
   114.4261 116.5698 120.8511 122.6349 125.0965 125.9348 127.2969 134.0388

     occupation numbers 
     1.0000   1.0000   1.0000   1.0000   1.0000  -0.0000  -0.0000  -0.0000
    -0.0000  -0.0000  -0.0000  -0.0000  -0.0000  -0.0000  -0.0000  -0.0000
    -0.0000  -0.0000  -0.0000  -0.0000  -0.0000  -0.0000  -0.0000  -0.0000
    -0.0000  -0.0000  -0.0000  -0.0000  -0.0000  -0.0000  -0.0000  -0.0000
    -0.0000  -0.0000  -0.0000  -0.0000  -0.0000  -0.0000  -0.0000  -0.0000

          k = 0.0625 0.4375 0.6875 (   133 PWs)   bands (ev):

    11.2451  11.7952  12.0507  13.7591  14.3648  17.9341  25.5048  28.9112
    33.4081  43.9837  46.7000  52.4777  56.7137  58.9223  62.4581  64.0033
    66.9612  70.1386  78.4095  80.2241  82.0451  84.6946  89.3231  90.8860
    94.2633  95.1443  98.0617  99.9031 101.3813 105.6418 108.2396 110.0516
   113.5095 116.4108 119.8760 123.5560 126.5898 129.5023 130.7954 134.5825

     occupation numbers 
     1.0000   1.0000   1.0000   1.0000   1.0000  -0.0000  -0.0000  -0.0000
    -0.0000  -0.0000  -0.0000  -0.0000  -0.0000  -0.0000  -0.0000  -0.0000
    -0.0000  -0.0000  -0.0000  -0.0000  -0.0000  -0.0000  -0.0000  -0.0000
    -0.0000  -0.0000  -0.0000  -0.0000  -0.0000  -0.0000  -0.0000  -0.0000
    -0.0000  -0.0000  -0.0000  -0.0000  -0.0000  -0.0000  -0.0000  -0.0000

          k = 0.0625 0.4375 0.8125 (   134 PWs)   bands (ev):

    11.2926  11.6688  12.1319  13.9149  14.6671  19.9281  24.5296  28.1127
    29.8824  45.0263  47.0079  51.7083  57.2468  60.9053  62.1673  65.8418
    70.4060  71.9002  75.9344  79.9860  82.9150  84.3173  87.1392  90.4097
    93.2626  95.6127  97.2800  99.3941  99.5547 104.1502 107.3883 111.4469
   112.7033 114.6082 118.7372 124.3245 126.7933 129.8160 134.4560 135.2780

     occupation numbers 
     1.0000   1.0000   1.0000   1.0000   1.0029  -0.0000  -0.0000  -0.0000
    -0.0000  -0.0000  -0.0000  -0.0000  -0.0000  -0.0000  -0.0000  -0.0000
    -0.0000  -0.0000  -0.0000  -0.0000  -0.0000  -0.0000  -0.0000  -0.0000
    -0.0000  -0.0000  -0.0000  -0.0000  -0.0000  -0.0000  -0.0000  -0.0000
    -0.0000  -0.0000  -0.0000  -0.0000  -0.0000  -0.0000  -0.0000  -0.0000

          k = 0.0625 0.4375 0.9375 (   134 PWs)   bands (ev):

    11.1517  11.6599  12.2856  13.9470  14.8622  22.1141  23.9547  26.6774
    28.0357  45.1207  48.7208  50.5312  55.6260  62.1884  64.4790  67.3574
    71.2912  73.7954  75.2001  79.1848  80.4285  83.4120  88.3460  89.6852
    92.8582  93.8465  97.3539  98.2558 102.4043 104.0615 108.1213 109.6200
   110.3603 116.3925 117.8019 121.9666 126.5717 130.7745 134.3681 137.0392

     occupation numbers 
     1.0000   1.0000   1.0000   1.0000   1.0247  -0.0000  -0.0000  -0.0000
    -0.0000  -0.0000  -0.0000  -0.0000  -0.0000  -0.0000  -0.0000  -0.0000
    -0.0000  -0.0000  -0.0000  -0.0000  -0.0000  -0.0000  -0.0000  -0.0000
    -0.0000  -0.0000  -0.0000  -0.0000  -0.0000  -0.0000  -0.0000  -0.0000
    -0.0000  -0.0000  -0.0000  -0.0000  -0.0000  -0.0000  -0.0000  -0.0000

          k = 0.0625 0.5625 0.5625 (   135 PWs)   bands (ev):

    11.1284  12.0210  12.1769  13.5107  14.1536  17.6722  25.2005  28.7037
    37.9214  39.4116  50.7306  51.8218  57.0359  57.3695  59.7761  63.3397
    65.8478  70.1127  78.8596  80.5043  84.0161  87.6842  87.8004  90.1156
    94.2975  94.8511  97.8307  99.2502 103.3573 103.5997 111.4973 111.8848
   113.5637 116.0188 121.0814 121.3449 123.2423 126.0290 127.4149 138.0919

     occupation numbers 
     1.0000   1.0000   1.0000   1.0000   1.0000  -0.0000  -0.0000  -0.0000
    -0.0000  -0.0000  -0.0000  -0.0000  -0.0000  -0.0000  -0.0000  -0.0000
    -0.0000  -0.0000  -0.0000  -0.0000  -0.0000  -0.0000  -0.0000  -0.0000
    -0.0000  -0.0000  -0.0000  -0.0000  -0.0000  -0.0000  -0.0000  -0.0000
    -0.0000  -0.0000  -0.0000  -0.0000  -0.0000  -0.0000  -0.0000  -0.0000

          k = 0.0625 0.5625 0.6875 (   132 PWs)   bands (ev):

    11.3605  11.6830  12.2752  13.7024  14.3960  19.3050  23.8527  27.7568
    34.5391  40.7077  50.3221  55.5174  56.2639  56.5704  60.8465  63.9554
    67.5789  71.7020  78.6250  79.8999  85.8874  87.0737  87.8920  90.7485
    91.9158  94.0386  96.2126  96.9707 101.1097 105.4871 110.5073 111.6246
   112.5856 115.6887 119.3323 123.0987 124.5693 126.1285 130.0470 136.9307

     occupation numbers 
     1.0000   1.0000   1.0000   1.0000   1.0000  -0.0000  -0.0000  -0.0000
    -0.0000  -0.0000  -0.0000  -0.0000  -0.0000  -0.0000  -0.0000  -0.0000
    -0.0000  -0.0000  -0.0000  -0.0000  -0.0000  -0.0000  -0.0000  -0.0000
    -0.0000  -0.0000  -0.0000  -0.0000  -0.0000  -0.0000  -0.0000  -0.0000
    -0.0000  -0.0000  -0.0000  -0.0000  -0.0000  -0.0000  -0.0000  -0.0000

          k = 0.0625 0.5625 0.8125 (   132 PWs)   bands (ev):

    11.3388  11.5515  12.2982  13.8731  14.6684  21.3641  22.8889  27.1407
    30.9748  42.8471  49.6152  52.9532  55.9233  59.9966  61.9518  66.5234
    69.9104  73.5219  75.8035  79.0960  83.2041  86.3994  87.5795  90.6071
    92.6357  93.6351  97.2209  97.5195  99.3588 104.9714 108.7499 111.1522
   113.7166 114.1937 117.7761 123.2074 127.3726 129.3243 130.7050 133.9532

     occupation numbers 
     1.0000   1.0000   1.0000   1.0000   1.0030  -0.0000  -0.0000  -0.0000
    -0.0000  -0.0000  -0.0000  -0.0000  -0.0000  -0.0000  -0.0000  -0.0000
    -0.0000  -0.0000  -0.0000  -0.0000  -0.0000  -0.0000  -0.0000  -0.0000
    -0.0000  -0.0000  -0.0000  -0.0000  -0.0000  -0.0000  -0.0000  -0.0000
    -0.0000  -0.0000  -0.0000  -0.0000  -0.0000  -0.0000  -0.0000  -0.0000

          k = 0.0625 0.6875 0.6875 (   133 PWs)   bands (ev):

    11.1875  11.4837  12.6295  13.8747  14.5159  20.9387  22.5125  26.9686
    34.7730  38.4624  52.7324  54.4617  54.7990  58.9250  61.6853  64.3635
    68.6751  73.7327  77.4448  80.0557  82.9582  86.9248  88.8941  90.3360
    92.8400  93.3451  94.0575  94.4366 104.3287 105.0307 110.3855 112.4412
   114.3851 115.0066 118.9394 122.1319 122.8152 123.3031 131.8595 139.5647

     occupation numbers 
     1.0000   1.0000   1.0000   1.0000   1.0002  -0.0000  -0.0000  -0.0000
    -0.0000  -0.0000  -0.0000  -0.0000  -0.0000  -0.0000  -0.0000  -0.0000
    -0.0000  -0.0000  -0.0000  -0.0000  -0.0000  -0.0000  -0.0000  -0.0000
    -0.0000  -0.0000  -0.0000  -0.0000  -0.0000  -0.0000  -0.0000  -0.0000
    -0.0000  -0.0000  -0.0000  -0.0000  -0.0000  -0.0000  -0.0000  -0.0000

          k = 0.0625 0.6875 0.8125 (   133 PWs)   bands (ev):

    10.9778  11.2916  12.9108  14.0932  14.7000  21.0785  23.3701  26.5026
[...]
    -0.0000  -0.0000  -0.0000  -0.0000  -0.0000  -0.0000  -0.0000  -0.0000

          k = 0.1875 0.3125 0.4375 (   140 PWs)   bands (ev):

     9.5247  12.7225  13.3436  13.6767  14.7956  15.4322  28.0171  36.3136
    40.0636  42.7699  47.0833  48.4585  52.6806  55.0147  58.7118  62.2075
    67.7355  69.6534  73.3793  77.2177  80.3223  82.4090  88.2803  95.2974
    96.7830 102.8946 104.6200 105.5435 107.7271 109.8814 110.8510 115.1021
   116.0456 118.1905 120.8349 121.2645 124.7196 126.1555 128.2564 130.7310

     occupation numbers 
     1.0000   1.0000   1.0000   1.0000   1.0141   0.1135  -0.0000  -0.0000
    -0.0000  -0.0000  -0.0000  -0.0000  -0.0000  -0.0000  -0.0000  -0.0000
    -0.0000  -0.0000  -0.0000  -0.0000  -0.0000  -0.0000  -0.0000  -0.0000
    -0.0000  -0.0000  -0.0000  -0.0000  -0.0000  -0.0000  -0.0000  -0.0000
    -0.0000  -0.0000  -0.0000  -0.0000  -0.0000  -0.0000  -0.0000  -0.0000

          k = 0.1875 0.3125 0.5625 (   139 PWs)   bands (ev):

    10.4384  12.4968  13.1242  13.8798  15.1839  16.1113  26.4612  34.7275
    36.7576  41.0611  48.4728  50.9157  52.6996  56.7508  60.9699  64.8600
    68.9444  70.4550  73.8876  76.3234  80.5398  84.5787  88.8467  92.6199
    94.5765 100.4887 102.5026 103.2282 106.0579 107.5759 109.4682 112.2281
   115.4568 117.2391 120.8208 122.4174 125.3737 128.3793 129.5399 132.8994

     occupation numbers 
     1.0000   1.0000   1.0000   1.0000   0.7986  -0.0001  -0.0000  -0.0000
    -0.0000  -0.0000  -0.0000  -0.0000  -0.0000  -0.0000  -0.0000  -0.0000
    -0.0000  -0.0000  -0.0000  -0.0000  -0.0000  -0.0000  -0.0000  -0.0000
    -0.0000  -0.0000  -0.0000  -0.0000  -0.0000  -0.0000  -0.0000  -0.0000
    -0.0000  -0.0000  -0.0000  -0.0000  -0.0000  -0.0000  -0.0000  -0.0000

          k = 0.1875 0.3125 0.6875 (   136 PWs)   bands (ev):

    11.1117  12.1666  13.0917  14.1732  15.4126  17.4175  25.1907  32.6212
    33.8803  40.2786  49.2368  51.7025  55.0369  58.9636  62.6951  66.6938
    68.2851  70.4583  75.9564  77.4513  80.7478  86.5646  88.1279  89.9455
    92.3898  98.0095  99.6006 102.4029 103.1405 106.2913 109.2809 111.5430
   114.9090 116.9070 119.6139 123.1199 125.5996 128.3917 132.7263 134.2854

     occupation numbers 
     1.0000   1.0000   1.0000   1.0000   0.1535  -0.0000  -0.0000  -0.0000
    -0.0000  -0.0000  -0.0000  -0.0000  -0.0000  -0.0000  -0.0000  -0.0000
    -0.0000  -0.0000  -0.0000  -0.0000  -0.0000  -0.0000  -0.0000  -0.0000
    -0.0000  -0.0000  -0.0000  -0.0000  -0.0000  -0.0000  -0.0000  -0.0000
    -0.0000  -0.0000  -0.0000  -0.0000  -0.0000  -0.0000  -0.0000  -0.0000

          k = 0.1875 0.3125 0.8125 (   132 PWs)   bands (ev):

    11.3916  11.8922  13.2692  14.4798  15.4657  19.2986  24.2342  29.3469
    32.7973  39.8931  49.3752  52.8156  57.4093  60.2365  64.1006  65.4479
    69.0951  72.0961  78.4116  79.5133  80.0643  84.1691  86.4178  89.4583
    93.7931  95.1637  97.3786  99.0999 102.5127 106.1648 109.8720 112.9088
   114.8552 116.4890 117.1754 122.8856 125.1804 127.1361 132.0971 134.2753

     occupation numbers 
     1.0000   1.0000   1.0000   1.0001   0.0573  -0.0000  -0.0000  -0.0000
    -0.0000  -0.0000  -0.0000  -0.0000  -0.0000  -0.0000  -0.0000  -0.0000
    -0.0000  -0.0000  -0.0000  -0.0000  -0.0000  -0.0000  -0.0000  -0.0000
    -0.0000  -0.0000  -0.0000  -0.0000  -0.0000  -0.0000  -0.0000  -0.0000
    -0.0000  -0.0000  -0.0000  -0.0000  -0.0000  -0.0000  -0.0000  -0.0000

          k = 0.1875 0.4375 0.4375 (   137 PWs)   bands (ev):

    10.1883  12.8845  13.2051  13.6293  14.8180  16.0083  26.2195  34.6296
    40.6600  42.0339  47.2673  47.5547  55.2277  56.4703  57.7431  63.4504
    68.2730  70.6995  74.8104  78.1585  81.1597  82.6560  86.3533  95.9131
    97.0983 100.0797 101.8772 104.0982 105.7532 109.0215 110.6335 112.4970
   116.5442 118.4211 121.4221 121.6710 122.5241 126.2482 127.9565 130.2421

     occupation numbers 
     1.0000   1.0000   1.0000   1.0000   1.0174  -0.0006  -0.0000  -0.0000
    -0.0000  -0.0000  -0.0000  -0.0000  -0.0000  -0.0000  -0.0000  -0.0000
    -0.0000  -0.0000  -0.0000  -0.0000  -0.0000  -0.0000  -0.0000  -0.0000
    -0.0000  -0.0000  -0.0000  -0.0000  -0.0000  -0.0000  -0.0000  -0.0000
    -0.0000  -0.0000  -0.0000  -0.0000  -0.0000  -0.0000  -0.0000  -0.0000

          k = 0.1875 0.4375 0.5625 (   135 PWs)   bands (ev):

    10.8224  12.7642  13.0580  13.7688  15.0621  16.8858  24.7369  33.2044
    37.6627  41.9881  46.9504  50.8402  55.5690  57.2398  60.2766  64.5313
    65.9982  72.0375  76.4661  78.8608  81.4279  85.5381  86.2997  92.6320
    96.1360  98.0924  99.7663 101.8104 105.5786 107.0693 108.3947 112.8122
   114.7121 116.9515 120.6243 122.8110 125.2364 127.4524 128.9348 131.6069

     occupation numbers 
     1.0000   1.0000   1.0000   1.0000   0.9972  -0.0000  -0.0000  -0.0000
    -0.0000  -0.0000  -0.0000  -0.0000  -0.0000  -0.0000  -0.0000  -0.0000
    -0.0000  -0.0000  -0.0000  -0.0000  -0.0000  -0.0000  -0.0000  -0.0000
    -0.0000  -0.0000  -0.0000  -0.0000  -0.0000  -0.0000  -0.0000  -0.0000
    -0.0000  -0.0000  -0.0000  -0.0000  -0.0000  -0.0000  -0.0000  -0.0000

          k = 0.1875 0.4375 0.6875 (   135 PWs)   bands (ev):

    11.3502  12.3615  12.9967  14.0278  15.2945  18.3278  23.5693  32.0492
    33.9358  42.5296  47.1892  54.4115  54.9267  58.6621  61.5283  63.6284
    67.3370  72.1996  78.1024  79.0381  82.8436  85.7415  87.7946  90.8835
    93.3833  96.2218  97.7609 100.8580 104.2632 105.1132 107.3553 111.5629
   114.0378 116.8086 119.2307 124.3211 127.5977 128.8251 132.3457 133.1497

     occupation numbers 
     1.0000   1.0000   1.0000   1.0000   0.4794  -0.0000  -0.0000  -0.0000
    -0.0000  -0.0000  -0.0000  -0.0000  -0.0000  -0.0000  -0.0000  -0.0000
    -0.0000  -0.0000  -0.0000  -0.0000  -0.0000  -0.0000  -0.0000  -0.0000
    -0.0000  -0.0000  -0.0000  -0.0000  -0.0000  -0.0000  -0.0000  -0.0000
    -0.0000  -0.0000  -0.0000  -0.0000  -0.0000  -0.0000  -0.0000  -0.0000

          k = 0.1875 0.4375 0.8125 (   135 PWs)   bands (ev):

    11.7401  12.0200  12.9125  14.2905  15.3885  20.2465  22.8050  30.1347
    31.5763  42.8283  48.2388  53.9501  57.6319  58.1168  61.7183  64.7241
    69.6740  72.1851  78.3244  80.0442  81.2211  86.7624  88.0827  90.1063
    92.9503  94.7458  97.1739  99.8478 101.6831 102.4427 107.7545 113.4287
   114.4445 115.2839 117.0413 125.4147 127.5448 129.8648 132.3132 132.6177

     occupation numbers 
     1.0000   1.0000   1.0000   1.0000   0.2095  -0.0000  -0.0000  -0.0000
    -0.0000  -0.0000  -0.0000  -0.0000  -0.0000  -0.0000  -0.0000  -0.0000
    -0.0000  -0.0000  -0.0000  -0.0000  -0.0000  -0.0000  -0.0000  -0.0000
    -0.0000  -0.0000  -0.0000  -0.0000  -0.0000  -0.0000  -0.0000  -0.0000
    -0.0000  -0.0000  -0.0000  -0.0000  -0.0000  -0.0000  -0.0000  -0.0000

          k = 0.1875 0.5625 0.5625 (   131 PWs)   bands (ev):

    11.1592  12.6385  13.1554  13.8017  15.1303  17.9248  23.3767  31.8743
    38.4179  39.4085  49.8511  49.9622  58.0926  59.4021  59.7061  61.5344
    65.4861  74.0429  77.5756  79.0721  84.4785  85.6840  86.8373  91.5330
    92.7070  96.9955  98.6741 101.7000 103.5368 104.0261 111.0174 112.3010
   114.7977 116.4229 120.7682 122.2628 123.2311 128.4091 130.3228 132.0940

     occupation numbers 
     1.0000   1.0000   1.0000   1.0000   0.9104  -0.0000  -0.0000  -0.0000
    -0.0000  -0.0000  -0.0000  -0.0000  -0.0000  -0.0000  -0.0000  -0.0000
    -0.0000  -0.0000  -0.0000  -0.0000  -0.0000  -0.0000  -0.0000  -0.0000
    -0.0000  -0.0000  -0.0000  -0.0000  -0.0000  -0.0000  -0.0000  -0.0000
    -0.0000  -0.0000  -0.0000  -0.0000  -0.0000  -0.0000  -0.0000  -0.0000

          k = 0.1875 0.5625 0.6875 (   129 PWs)   bands (ev):

    11.4745  12.2961  13.1028  14.0147  15.2951  19.2905  22.4823  30.8622
    35.0370  40.7797  49.0521  53.8858  57.0526  58.5696  60.3523  63.1692
    66.6757  74.1377  77.5090  80.1675  84.5561  85.6267  88.4232  90.7387
    90.9425  95.8911  98.3281  99.4022 101.9419 104.1549 110.6264 111.3288
   114.6377 116.1909 119.1951 123.9927 124.7666 129.6168 130.4970 134.1361

     occupation numbers 
     1.0000   1.0000   1.0000   1.0000   0.4774  -0.0000  -0.0000  -0.0000
    -0.0000  -0.0000  -0.0000  -0.0000  -0.0000  -0.0000  -0.0000  -0.0000
    -0.0000  -0.0000  -0.0000  -0.0000  -0.0000  -0.0000  -0.0000  -0.0000
    -0.0000  -0.0000  -0.0000  -0.0000  -0.0000  -0.0000  -0.0000  -0.0000
    -0.0000  -0.0000  -0.0000  -0.0000  -0.0000  -0.0000  -0.0000  -0.0000

          k = 0.1875 0.6875 0.6875 (   132 PWs)   bands (ev):

    11.4874  12.0749  13.1957  14.1887  15.3993  19.7108  22.5886  29.9434
    35.3727  38.6494  52.3943  53.0287  54.0598  59.9225  63.0898  63.8262
    66.6715  74.2033  77.7229  79.8585  84.1434  84.1742  87.4754  89.2737
    92.8449  96.9549  97.5187  98.6793 100.1198 105.1584 111.1093 113.5985
   113.9640 116.1254 118.4976 122.9466 123.5688 126.6445 131.7005 138.3249

     occupation numbers 
     1.0000   1.0000   1.0000   1.0000   0.1834  -0.0000  -0.0000  -0.0000
    -0.0000  -0.0000  -0.0000  -0.0000  -0.0000  -0.0000  -0.0000  -0.0000
    -0.0000  -0.0000  -0.0000  -0.0000  -0.0000  -0.0000  -0.0000  -0.0000
    -0.0000  -0.0000  -0.0000  -0.0000  -0.0000  -0.0000  -0.0000  -0.0000
    -0.0000  -0.0000  -0.0000  -0.0000  -0.0000  -0.0000  -0.0000  -0.0000

          k = 0.3125 0.3125 0.3125 (   144 PWs)   bands (ev):

     9.1777  12.9973  13.4815  13.4815  14.9447  14.9447  27.7276  39.4052
    42.0659  42.0659  46.9260  46.9260  49.7556  58.1512  58.1512  58.4593
    66.2668  70.7725  75.9423  75.9423  81.9355  81.9355  83.3919  96.0007
    98.5308 105.2207 105.2207 108.2474 110.8275 110.8275 112.0281 112.0281
   115.4777 116.4944 121.8534 123.8753 123.8753 125.6196 125.6196 128.9452

     occupation numbers 
     1.0000   1.0000   1.0000   1.0000   1.0353   1.0353  -0.0000  -0.0000
    -0.0000  -0.0000  -0.0000  -0.0000  -0.0000  -0.0000  -0.0000  -0.0000
    -0.0000  -0.0000  -0.0000  -0.0000  -0.0000  -0.0000  -0.0000  -0.0000
    -0.0000  -0.0000  -0.0000  -0.0000  -0.0000  -0.0000  -0.0000  -0.0000
    -0.0000  -0.0000  -0.0000  -0.0000  -0.0000  -0.0000  -0.0000  -0.0000

          k = 0.3125 0.3125 0.4375 (   141 PWs)   bands (ev):

     9.8552  13.1174  13.3544  13.4867  15.2038  15.2455  25.9369  38.4691
    39.7586  42.2446  46.1047  48.0481  51.1158  56.7650  60.2056  61.9372
    67.1038  73.9777  74.1074  77.9033  80.6593  80.7097  84.3417  95.8061
    98.4338 101.5359 103.4651 104.8326 108.7688 109.2452 112.4961 112.7706
   114.7190 118.1432 120.4092 121.9863 123.1434 126.6248 127.3381 130.6428

     occupation numbers 
     1.0000   1.0000   1.0000   1.0000   0.7479   0.6298  -0.0000  -0.0000
    -0.0000  -0.0000  -0.0000  -0.0000  -0.0000  -0.0000  -0.0000  -0.0000
    -0.0000  -0.0000  -0.0000  -0.0000  -0.0000  -0.0000  -0.0000  -0.0000
    -0.0000  -0.0000  -0.0000  -0.0000  -0.0000  -0.0000  -0.0000  -0.0000
    -0.0000  -0.0000  -0.0000  -0.0000  -0.0000  -0.0000  -0.0000  -0.0000

          k = 0.3125 0.3125 0.5625 (   140 PWs)   bands (ev):

    10.5226  12.8613  13.2890  13.6236  15.4375  16.1483  24.4683  36.5712
    37.8449  39.7999  48.7584  49.4873  52.9937  55.9655  61.6978  65.5505
    67.9920  71.0178  75.3761  77.1588  81.3614  85.1872  85.2583  92.1297
    96.0928  99.3181 102.2810 103.3332 106.2763 106.5525 111.8384 112.2992
   113.1449 118.1356 121.6627 122.1480 123.1829 127.5708 128.9105 130.5307

     occupation numbers 
     1.0000   1.0000   1.0000   1.0000   0.1037  -0.0000  -0.0000  -0.0000
    -0.0000  -0.0000  -0.0000  -0.0000  -0.0000  -0.0000  -0.0000  -0.0000
    -0.0000  -0.0000  -0.0000  -0.0000  -0.0000  -0.0000  -0.0000  -0.0000
    -0.0000  -0.0000  -0.0000  -0.0000  -0.0000  -0.0000  -0.0000  -0.0000
    -0.0000  -0.0000  -0.0000  -0.0000  -0.0000  -0.0000  -0.0000  -0.0000

          k = 0.3125 0.3125 0.6875 (   134 PWs)   bands (ev):

    11.0840  12.4359  13.2430  13.8731  15.4885  17.7346  23.3259  33.3243
    36.3732  38.9107  50.9395  51.1959  53.9227  57.5451  62.4648  66.3642
    67.4275  70.8077  75.8160  80.0295  82.8475  85.6373  86.7363  90.0783
    92.4685  98.0981 100.0138 101.5994 103.3661 105.2652 110.3681 112.5613
   113.7616 116.4268 120.9934 122.9897 124.1828 127.4792 132.5271 132.7431

     occupation numbers 
     1.0000   1.0000   1.0000   1.0000   0.0278  -0.0000  -0.0000  -0.0000
    -0.0000  -0.0000  -0.0000  -0.0000  -0.0000  -0.0000  -0.0000  -0.0000
    -0.0000  -0.0000  -0.0000  -0.0000  -0.0000  -0.0000  -0.0000  -0.0000
    -0.0000  -0.0000  -0.0000  -0.0000  -0.0000  -0.0000  -0.0000  -0.0000
    -0.0000  -0.0000  -0.0000  -0.0000  -0.0000  -0.0000  -0.0000  -0.0000

          k = 0.3125 0.4375 0.4375 (   140 PWs)   bands (ev):

    10.2351  13.2795  13.4000  13.5903  15.1564  15.6919  24.2581  37.5277
    40.3441  42.2384  45.4015  47.0003  51.9760  59.2264  59.9584  63.4347
    67.1260  72.7735  76.9643  77.5409  80.6846  82.7093  82.9553  96.1145
    98.7657  98.9033 100.1857 102.6382 107.3662 110.8585 112.5751 112.8815
   114.5094 117.1592 120.7185 122.0739 123.3604 125.6386 127.4668 130.0224

     occupation numbers 
     1.0000   1.0000   1.0000   1.0000   0.8606  -0.0283  -0.0000  -0.0000
    -0.0000  -0.0000  -0.0000  -0.0000  -0.0000  -0.0000  -0.0000  -0.0000
    -0.0000  -0.0000  -0.0000  -0.0000  -0.0000  -0.0000  -0.0000  -0.0000
    -0.0000  -0.0000  -0.0000  -0.0000  -0.0000  -0.0000  -0.0000  -0.0000
    -0.0000  -0.0000  -0.0000  -0.0000  -0.0000  -0.0000  -0.0000  -0.0000

          k = 0.3125 0.4375 0.5625 (   136 PWs)   bands (ev):

    10.6315  13.0324  13.4872  13.6407  15.3507  16.5821  22.9947  36.2418
    38.3355  41.0823  46.5262  48.8193  53.7419  58.4477  61.8139  65.3515
    65.8379  72.1086  75.3848  79.6974  82.6063  83.3977  85.9311  92.4320
    95.6664  97.2565 100.2690 101.9165 105.7161 109.8740 110.8217 112.4292
   113.4921 118.7104 120.1830 122.0484 123.8933 126.7456 128.7394 131.5945

     occupation numbers 
     1.0000   1.0000   1.0000   1.0000   0.3102  -0.0000  -0.0000  -0.0000
    -0.0000  -0.0000  -0.0000  -0.0000  -0.0000  -0.0000  -0.0000  -0.0000
    -0.0000  -0.0000  -0.0000  -0.0000  -0.0000  -0.0000  -0.0000  -0.0000
    -0.0000  -0.0000  -0.0000  -0.0000  -0.0000  -0.0000  -0.0000  -0.0000
    -0.0000  -0.0000  -0.0000  -0.0000  -0.0000  -0.0000  -0.0000  -0.0000

          k = 0.3125 0.4375 0.6875 (   134 PWs)   bands (ev):

    11.0487  12.6520  13.4030  13.7184  15.4100  18.0360  22.2387  34.1265
    35.9253  40.8206  47.6444  51.5920  56.5158  57.6153  61.2956  63.9994
    67.0084  72.0493  76.5312  82.0020  83.2288  83.8887  87.3953  90.7013
    93.6399  95.4481  98.7480 100.8047 105.3582 107.0137 110.5456 110.8083
   112.5384 117.5711 121.0611 123.5506 124.3700 128.4085 130.9255 132.3569

     occupation numbers 
     1.0000   1.0000   1.0000   1.0000   0.1593  -0.0000  -0.0000  -0.0000
    -0.0000  -0.0000  -0.0000  -0.0000  -0.0000  -0.0000  -0.0000  -0.0000
    -0.0000  -0.0000  -0.0000  -0.0000  -0.0000  -0.0000  -0.0000  -0.0000
    -0.0000  -0.0000  -0.0000  -0.0000  -0.0000  -0.0000  -0.0000  -0.0000
    -0.0000  -0.0000  -0.0000  -0.0000  -0.0000  -0.0000  -0.0000  -0.0000

          k = 0.3125 0.5625 0.5625 (   131 PWs)   bands (ev):

    10.8008  12.9312  13.5210  13.7079  15.3614  17.3011  22.1508  35.1477
    39.1811  39.4624  47.9403  48.4220  54.8120  59.9016  62.7539  62.7769
    65.5198  73.9591  74.5405  80.6177  82.5594  85.4876  87.3606  90.5072
    94.1843  95.2276  99.9784 102.9857 103.4936 109.4386 110.6232 112.5390
   113.5859 118.1115 120.6105 122.2308 123.5592 127.7006 129.3134 130.2598

     occupation numbers 
     1.0000   1.0000   1.0000   1.0000   0.2803  -0.0000  -0.0000  -0.0000
    -0.0000  -0.0000  -0.0000  -0.0000  -0.0000  -0.0000  -0.0000  -0.0000
    -0.0000  -0.0000  -0.0000  -0.0000  -0.0000  -0.0000  -0.0000  -0.0000
    -0.0000  -0.0000  -0.0000  -0.0000  -0.0000  -0.0000  -0.0000  -0.0000
    -0.0000  -0.0000  -0.0000  -0.0000  -0.0000  -0.0000  -0.0000  -0.0000

          k = 0.4375 0.4375 0.4375 (   135 PWs)   bands (ev):

    10.3332  13.2995  13.2995  14.4427  15.3833  15.3833  22.8441  38.4259
    41.5581  41.5581  45.1431  45.1431  51.1849  60.4581  63.3253  63.3253
    66.7682  73.1759  73.1759  79.1646  82.2363  83.4991  83.4991  94.4718
    98.1813  98.5827  98.5827 100.5051 110.7245 110.7245 112.1505 113.1720
   114.8860 114.8860 122.8599 122.8599 123.1350 126.3201 126.3201 128.8549

     occupation numbers 
     1.0000   1.0000   1.0000   1.0001   0.2224   0.2224  -0.0000  -0.0000
    -0.0000  -0.0000  -0.0000  -0.0000  -0.0000  -0.0000  -0.0000  -0.0000
    -0.0000  -0.0000  -0.0000  -0.0000  -0.0000  -0.0000  -0.0000  -0.0000
    -0.0000  -0.0000  -0.0000  -0.0000  -0.0000  -0.0000  -0.0000  -0.0000
    -0.0000  -0.0000  -0.0000  -0.0000  -0.0000  -0.0000  -0.0000  -0.0000

          k = 0.4375 0.4375 0.5625 (   135 PWs)   bands (ev):

    10.5166  13.1826  13.3423  14.2984  15.4554  16.1784  22.0668  37.6872
    40.2830  40.4218  46.2409  46.3061  52.2087  60.4160  63.4687  64.9048
    66.2943  71.5003  73.3569  79.3652  83.8890  84.3282  86.5981  91.4097
    93.9474  97.1349 100.9669 101.2193 106.3362 110.7037 112.1236 113.9774
   114.7827 116.4118 120.6780 122.8645 122.9696 126.6146 126.9903 130.7866

     occupation numbers 
     1.0000   1.0000   1.0000   1.0000   0.0730  -0.0000  -0.0000  -0.0000
    -0.0000  -0.0000  -0.0000  -0.0000  -0.0000  -0.0000  -0.0000  -0.0000
    -0.0000  -0.0000  -0.0000  -0.0000  -0.0000  -0.0000  -0.0000  -0.0000
    -0.0000  -0.0000  -0.0000  -0.0000  -0.0000  -0.0000  -0.0000  -0.0000
    -0.0000  -0.0000  -0.0000  -0.0000  -0.0000  -0.0000  -0.0000  -0.0000

     the Fermi energy is    15.2878 ev

     Writing output data file ni.save
 
     init_run     :      0.43s CPU      0.44s WALL (       1 calls)
     electrons    :     28.33s CPU     30.77s WALL (       1 calls)

     Called by init_run:
     wfcinit      :      0.00s CPU      0.00s WALL (       1 calls)
     potinit      :      0.01s CPU      0.01s WALL (       1 calls)

     Called by electrons:
     c_bands      :     28.32s CPU     30.76s WALL (       1 calls)
     v_of_rho     :      0.00s CPU      0.00s WALL (       1 calls)
     v_h          :      0.00s CPU      0.00s WALL (       1 calls)
     v_xc         :      0.00s CPU      0.00s WALL (       1 calls)
     newd         :      0.01s CPU      0.02s WALL (       1 calls)

     Called by c_bands:
     init_us_2    :      0.01s CPU      0.01s WALL (     120 calls)
     ccgdiagg     :     26.34s CPU     27.39s WALL (     340 calls)
     wfcrot       :      1.92s CPU      1.96s WALL (     340 calls)

     Called by sum_band:

     Called by *cgdiagg:
     h_psi        :     20.81s CPU     21.38s WALL (  139761 calls)
     s_psi        :      1.93s CPU      2.23s WALL (  279182 calls)
     cdiaghg      :      0.19s CPU      0.20s WALL (     340 calls)

     Called by h_psi:
     h_psi:vloc   :     17.39s CPU     17.67s WALL (  139761 calls)
     h_psi:vnl    :      2.71s CPU      2.85s WALL (  139761 calls)
     add_vuspsi   :      1.14s CPU      1.14s WALL (  139761 calls)

     General routines
     calbec       :      1.44s CPU      1.43s WALL (  279182 calls)
     fft          :      0.01s CPU      0.01s WALL (       9 calls)
     ffts         :      0.00s CPU      0.00s WALL (       2 calls)
     fftw         :     13.98s CPU     14.33s WALL (  306042 calls)
     interpolate  :      0.00s CPU      0.00s WALL (       2 calls)
     davcio       :      0.00s CPU      1.36s WALL (     120 calls)
 
     Parallel routines
     fft_scatter  :      1.16s CPU      1.28s WALL (  306053 calls)
 
     PWSCF        :    29.14s CPU        31.64s WALL

 
   This run was terminated on:  14:32:51   2Oct2015            

=------------------------------------------------------------------------------=
   JOB DONE.
=------------------------------------------------------------------------------=
