
     Program PWSCF v.5.2.0 starts on  1Oct2015 at 15:58:34 

     This program is part of the open-source Quantum ESPRESSO suite
     for quantum simulation of materials; please cite
         "P. Giannozzi et al., J. Phys.:Condens. Matter 21 395502 (2009);
          URL http://www.quantum-espresso.org", 
     in publications or presentations arising from this work. More details at
     http://www.quantum-espresso.org/quote

     Parallel version (MPI), running on     1 processors
     Waiting for input...
     Reading input from standard input
     Message from routine read_cards :
     DEPRECATED: no units specified in ATOMIC_POSITIONS card
     Message from routine read_cards :
     ATOMIC_POSITIONS: units set to alat

     Current dimensions of program PWSCF are:
     Max number of different atomic species (ntypx) = 10
     Max number of k-points (npk) =  40000
     Max angular momentum in pseudopotentials (lmaxx) =  3
               file Ni.pz-nd-rrkjus.UPF: wavefunction(s)  4S renormalized

     Subspace diagonalization in iterative solution of the eigenvalue problem:
     a serial algorithm will be used

 
     G-vector sticks info
     --------------------
     sticks:   dense  smooth     PW     G-vecs:    dense   smooth      PW
     Sum         421     139     55                 5601     1067     259
 
     Generating pointlists ...
     new r_m :   0.2917 (alat units)  1.8901 (a.u.) for type    1


     bravais-lattice index     =            2
     lattice parameter (alat)  =       6.4800  a.u.
     unit-cell volume          =      68.0244 (a.u.)^3
     number of atoms/cell      =            1
     number of atomic types    =            1
     number of electrons       =        10.00
     number of Kohn-Sham states=            9
     kinetic-energy cutoff     =      24.0000  Ry
     charge density cutoff     =     288.0000  Ry
     convergence threshold     =      1.0E-08
     mixing beta               =       0.7000
     number of iterations used =            8  plain     mixing
     Exchange-correlation      =  SLA  PZ   NOGX NOGC ( 1  1  0  0 0 0)

     celldm(1)=   6.480000  celldm(2)=   0.000000  celldm(3)=   0.000000
     celldm(4)=   0.000000  celldm(5)=   0.000000  celldm(6)=   0.000000

     crystal axes: (cart. coord. in units of alat)
               a(1) = (  -0.500000   0.000000   0.500000 )  
               a(2) = (   0.000000   0.500000   0.500000 )  
               a(3) = (  -0.500000   0.500000   0.000000 )  

     reciprocal axes: (cart. coord. in units 2 pi/alat)
               b(1) = ( -1.000000 -1.000000  1.000000 )  
               b(2) = (  1.000000  1.000000  1.000000 )  
               b(3) = ( -1.000000  1.000000 -1.000000 )  


     PseudoPot. # 1 for Ni read from file:
     ./Ni.pz-nd-rrkjus.UPF
     MD5 check sum: bf64e4f20c74808dea28321d1ca350c3
     Pseudo is Ultrasoft + core correction, Zval = 10.0
     Generated by new atomic code, or converted to UPF format
     Using radial grid of 1203 points,  6 beta functions with: 
                l(1) =   0
                l(2) =   0
                l(3) =   1
                l(4) =   1
                l(5) =   2
                l(6) =   2
     Q(r) pseudized with 0 coefficients 


     atomic species   valence    mass     pseudopotential
        Ni            10.00    58.69000     Ni( 1.00)

     Starting magnetic structure 
     atomic species   magnetization
        Ni           0.700

     48 Sym. Ops., with inversion, found


                                    s                        frac. trans.

      isym =  1     identity                                     

 cryst.   s( 1) = (     1          0          0      )
                  (     0          1          0      )
                  (     0          0          1      )

 cart.    s( 1) = (  1.0000000  0.0000000  0.0000000 )
                  (  0.0000000  1.0000000  0.0000000 )
                  (  0.0000000  0.0000000  1.0000000 )


      isym =  2     180 deg rotation - cart. axis [0,0,1]        

 cryst.   s( 2) = (     0          1         -1      )
                  (     1          0         -1      )
                  (     0          0         -1      )

 cart.    s( 2) = ( -1.0000000  0.0000000  0.0000000 )
                  (  0.0000000 -1.0000000  0.0000000 )
                  (  0.0000000  0.0000000  1.0000000 )


      isym =  3     180 deg rotation - cart. axis [0,1,0]        

 cryst.   s( 3) = (    -1          0          0      )
                  (    -1          0          1      )
                  (    -1          1          0      )

 cart.    s( 3) = ( -1.0000000  0.0000000  0.0000000 )
                  (  0.0000000  1.0000000  0.0000000 )
                  (  0.0000000  0.0000000 -1.0000000 )


      isym =  4     180 deg rotation - cart. axis [1,0,0]        

 cryst.   s( 4) = (     0         -1          1      )
                  (     0         -1          0      )
                  (     1         -1          0      )

 cart.    s( 4) = (  1.0000000  0.0000000  0.0000000 )
                  (  0.0000000 -1.0000000  0.0000000 )
                  (  0.0000000  0.0000000 -1.0000000 )


      isym =  5     180 deg rotation - cart. axis [1,1,0]        

 cryst.   s( 5) = (     0         -1          0      )
                  (    -1          0          0      )
                  (     0          0         -1      )

 cart.    s( 5) = (  0.0000000  1.0000000  0.0000000 )
                  (  1.0000000  0.0000000  0.0000000 )
                  (  0.0000000  0.0000000 -1.0000000 )


      isym =  6     180 deg rotation - cart. axis [1,-1,0]       

 cryst.   s( 6) = (    -1          0          1      )
                  (     0         -1          1      )
                  (     0          0          1      )

 cart.    s( 6) = (  0.0000000 -1.0000000  0.0000000 )
                  ( -1.0000000  0.0000000  0.0000000 )
                  (  0.0000000  0.0000000 -1.0000000 )


      isym =  7      90 deg rotation - cart. axis [0,0,-1]       

 cryst.   s( 7) = (     0          1          0      )
                  (     0          1         -1      )
                  (    -1          1          0      )

 cart.    s( 7) = (  0.0000000  1.0000000  0.0000000 )
                  ( -1.0000000  0.0000000  0.0000000 )
                  (  0.0000000  0.0000000  1.0000000 )


      isym =  8      90 deg rotation - cart. axis [0,0,1]        

 cryst.   s( 8) = (     1          0         -1      )
                  (     1          0          0      )
                  (     1         -1          0      )

 cart.    s( 8) = (  0.0000000 -1.0000000  0.0000000 )
                  (  1.0000000  0.0000000  0.0000000 )
                  (  0.0000000  0.0000000  1.0000000 )


      isym =  9     180 deg rotation - cart. axis [1,0,1]        

 cryst.   s( 9) = (    -1          0          0      )
                  (     0          0         -1      )
                  (     0         -1          0      )

 cart.    s( 9) = (  0.0000000  0.0000000  1.0000000 )
                  (  0.0000000 -1.0000000  0.0000000 )
                  (  1.0000000  0.0000000  0.0000000 )


      isym = 10     180 deg rotation - cart. axis [-1,0,1]       

 cryst.   s(10) = (     1          0          0      )
                  (     1         -1          0      )
                  (     1          0         -1      )

 cart.    s(10) = (  0.0000000  0.0000000 -1.0000000 )
                  (  0.0000000 -1.0000000  0.0000000 )
                  ( -1.0000000  0.0000000  0.0000000 )


      isym = 11      90 deg rotation - cart. axis [0,1,0]        

 cryst.   s(11) = (     0          1         -1      )
                  (    -1          1          0      )
                  (     0          1          0      )

 cart.    s(11) = (  0.0000000  0.0000000  1.0000000 )
                  (  0.0000000  1.0000000  0.0000000 )
                  ( -1.0000000  0.0000000  0.0000000 )


      isym = 12      90 deg rotation - cart. axis [0,-1,0]       

 cryst.   s(12) = (     0         -1          1      )
                  (     0          0          1      )
                  (    -1          0          1      )

 cart.    s(12) = (  0.0000000  0.0000000 -1.0000000 )
                  (  0.0000000  1.0000000  0.0000000 )
                  (  1.0000000  0.0000000  0.0000000 )


      isym = 13     180 deg rotation - cart. axis [0,1,1]        

 cryst.   s(13) = (    -1          1          0      )
                  (     0          1          0      )
                  (     0          1         -1      )

 cart.    s(13) = ( -1.0000000  0.0000000  0.0000000 )
                  (  0.0000000  0.0000000  1.0000000 )
                  (  0.0000000  1.0000000  0.0000000 )


      isym = 14     180 deg rotation - cart. axis [0,1,-1]       

 cryst.   s(14) = (     0          0         -1      )
                  (     0         -1          0      )
                  (    -1          0          0      )

 cart.    s(14) = ( -1.0000000  0.0000000  0.0000000 )
                  (  0.0000000  0.0000000 -1.0000000 )
                  (  0.0000000 -1.0000000  0.0000000 )


      isym = 15      90 deg rotation - cart. axis [-1,0,0]       

 cryst.   s(15) = (     0          0          1      )
                  (    -1          0          1      )
                  (     0         -1          1      )

 cart.    s(15) = (  1.0000000  0.0000000  0.0000000 )
                  (  0.0000000  0.0000000  1.0000000 )
                  (  0.0000000 -1.0000000  0.0000000 )


      isym = 16      90 deg rotation - cart. axis [1,0,0]        

 cryst.   s(16) = (     1         -1          0      )
                  (     1          0         -1      )
                  (     1          0          0      )

 cart.    s(16) = (  1.0000000  0.0000000  0.0000000 )
                  (  0.0000000  0.0000000 -1.0000000 )
                  (  0.0000000  1.0000000  0.0000000 )


      isym = 17     120 deg rotation - cart. axis [-1,-1,-1]     

 cryst.   s(17) = (    -1          0          1      )
                  (    -1          1          0      )
                  (    -1          0          0      )

 cart.    s(17) = (  0.0000000  1.0000000  0.0000000 )
                  (  0.0000000  0.0000000  1.0000000 )
                  (  1.0000000  0.0000000  0.0000000 )


      isym = 18     120 deg rotation - cart. axis [-1,1,1]       

 cryst.   s(18) = (     0          1          0      )
                  (     0          0          1      )
                  (     1          0          0      )

 cart.    s(18) = (  0.0000000 -1.0000000  0.0000000 )
                  (  0.0000000  0.0000000  1.0000000 )
                  ( -1.0000000  0.0000000  0.0000000 )


      isym = 19     120 deg rotation - cart. axis [1,1,-1]       

 cryst.   s(19) = (     1          0         -1      )
                  (     0          0         -1      )
                  (     0          1         -1      )

 cart.    s(19) = (  0.0000000  1.0000000  0.0000000 )
                  (  0.0000000  0.0000000 -1.0000000 )
                  ( -1.0000000  0.0000000  0.0000000 )


      isym = 20     120 deg rotation - cart. axis [1,-1,1]       

 cryst.   s(20) = (     0         -1          0      )
                  (     1         -1          0      )
                  (     0         -1          1      )

 cart.    s(20) = (  0.0000000 -1.0000000  0.0000000 )
                  (  0.0000000  0.0000000 -1.0000000 )
                  (  1.0000000  0.0000000  0.0000000 )


      isym = 21     120 deg rotation - cart. axis [1,1,1]        

 cryst.   s(21) = (     0          0         -1      )
                  (     0          1         -1      )
                  (     1          0         -1      )

 cart.    s(21) = (  0.0000000  0.0000000  1.0000000 )
                  (  1.0000000  0.0000000  0.0000000 )
                  (  0.0000000  1.0000000  0.0000000 )


      isym = 22     120 deg rotation - cart. axis [-1,1,-1]      

 cryst.   s(22) = (    -1          1          0      )
                  (    -1          0          0      )
                  (    -1          0          1      )

 cart.    s(22) = (  0.0000000  0.0000000  1.0000000 )
                  ( -1.0000000  0.0000000  0.0000000 )
                  (  0.0000000 -1.0000000  0.0000000 )


      isym = 23     120 deg rotation - cart. axis [1,-1,-1]      

 cryst.   s(23) = (     0          0          1      )
                  (     1          0          0      )
                  (     0          1          0      )

 cart.    s(23) = (  0.0000000  0.0000000 -1.0000000 )
                  ( -1.0000000  0.0000000  0.0000000 )
                  (  0.0000000  1.0000000  0.0000000 )


      isym = 24     120 deg rotation - cart. axis [-1,-1,1]      

 cryst.   s(24) = (     1         -1          0      )
                  (     0         -1          1      )
                  (     0         -1          0      )

 cart.    s(24) = (  0.0000000  0.0000000 -1.0000000 )
                  (  1.0000000  0.0000000  0.0000000 )
                  (  0.0000000 -1.0000000  0.0000000 )


      isym = 25     inversion                                    

 cryst.   s(25) = (    -1          0          0      )
                  (     0         -1          0      )
                  (     0          0         -1      )

 cart.    s(25) = ( -1.0000000  0.0000000  0.0000000 )
                  (  0.0000000 -1.0000000  0.0000000 )
                  (  0.0000000  0.0000000 -1.0000000 )


      isym = 26     inv. 180 deg rotation - cart. axis [0,0,1]   

 cryst.   s(26) = (     0         -1          1      )
                  (    -1          0          1      )
                  (     0          0          1      )

 cart.    s(26) = (  1.0000000  0.0000000  0.0000000 )
                  (  0.0000000  1.0000000  0.0000000 )
                  (  0.0000000  0.0000000 -1.0000000 )


      isym = 27     inv. 180 deg rotation - cart. axis [0,1,0]   

 cryst.   s(27) = (     1          0          0      )
                  (     1          0         -1      )
                  (     1         -1          0      )

 cart.    s(27) = (  1.0000000  0.0000000  0.0000000 )
                  (  0.0000000 -1.0000000  0.0000000 )
                  (  0.0000000  0.0000000  1.0000000 )


      isym = 28     inv. 180 deg rotation - cart. axis [1,0,0]   

 cryst.   s(28) = (     0          1         -1      )
                  (     0          1          0      )
                  (    -1          1          0      )

 cart.    s(28) = ( -1.0000000  0.0000000  0.0000000 )
                  (  0.0000000  1.0000000  0.0000000 )
                  (  0.0000000  0.0000000  1.0000000 )


      isym = 29     inv. 180 deg rotation - cart. axis [1,1,0]   

 cryst.   s(29) = (     0          1          0      )
                  (     1          0          0      )
                  (     0          0          1      )

 cart.    s(29) = (  0.0000000 -1.0000000  0.0000000 )
                  ( -1.0000000  0.0000000  0.0000000 )
                  (  0.0000000  0.0000000  1.0000000 )


      isym = 30     inv. 180 deg rotation - cart. axis [1,-1,0]  

 cryst.   s(30) = (     1          0         -1      )
                  (     0          1         -1      )
                  (     0          0         -1      )

 cart.    s(30) = (  0.0000000  1.0000000  0.0000000 )
                  (  1.0000000  0.0000000  0.0000000 )
                  (  0.0000000  0.0000000  1.0000000 )


      isym = 31     inv.  90 deg rotation - cart. axis [0,0,-1]  

 cryst.   s(31) = (     0         -1          0      )
                  (     0         -1          1      )
                  (     1         -1          0      )

 cart.    s(31) = (  0.0000000 -1.0000000  0.0000000 )
                  (  1.0000000  0.0000000  0.0000000 )
                  (  0.0000000  0.0000000 -1.0000000 )


      isym = 32     inv.  90 deg rotation - cart. axis [0,0,1]   

 cryst.   s(32) = (    -1          0          1      )
                  (    -1          0          0      )
                  (    -1          1          0      )

 cart.    s(32) = (  0.0000000  1.0000000  0.0000000 )
                  ( -1.0000000  0.0000000  0.0000000 )
                  (  0.0000000  0.0000000 -1.0000000 )


      isym = 33     inv. 180 deg rotation - cart. axis [1,0,1]   

 cryst.   s(33) = (     1          0          0      )
                  (     0          0          1      )
                  (     0          1          0      )

 cart.    s(33) = (  0.0000000  0.0000000 -1.0000000 )
                  (  0.0000000  1.0000000  0.0000000 )
                  ( -1.0000000  0.0000000  0.0000000 )


      isym = 34     inv. 180 deg rotation - cart. axis [-1,0,1]  

 cryst.   s(34) = (    -1          0          0      )
                  (    -1          1          0      )
                  (    -1          0          1      )

 cart.    s(34) = (  0.0000000  0.0000000  1.0000000 )
                  (  0.0000000  1.0000000  0.0000000 )
                  (  1.0000000  0.0000000  0.0000000 )


      isym = 35     inv.  90 deg rotation - cart. axis [0,1,0]   

 cryst.   s(35) = (     0         -1          1      )
                  (     1         -1          0      )
                  (     0         -1          0      )

 cart.    s(35) = (  0.0000000  0.0000000 -1.0000000 )
                  (  0.0000000 -1.0000000  0.0000000 )
                  (  1.0000000  0.0000000  0.0000000 )


      isym = 36     inv.  90 deg rotation - cart. axis [0,-1,0]  

 cryst.   s(36) = (     0          1         -1      )
                  (     0          0         -1      )
                  (     1          0         -1      )

 cart.    s(36) = (  0.0000000  0.0000000  1.0000000 )
                  (  0.0000000 -1.0000000  0.0000000 )
                  ( -1.0000000  0.0000000  0.0000000 )


      isym = 37     inv. 180 deg rotation - cart. axis [0,1,1]   

 cryst.   s(37) = (     1         -1          0      )
                  (     0         -1          0      )
                  (     0         -1          1      )

 cart.    s(37) = (  1.0000000  0.0000000  0.0000000 )
                  (  0.0000000  0.0000000 -1.0000000 )
                  (  0.0000000 -1.0000000  0.0000000 )


      isym = 38     inv. 180 deg rotation - cart. axis [0,1,-1]  

 cryst.   s(38) = (     0          0          1      )
                  (     0          1          0      )
                  (     1          0          0      )

 cart.    s(38) = (  1.0000000  0.0000000  0.0000000 )
                  (  0.0000000  0.0000000  1.0000000 )
                  (  0.0000000  1.0000000  0.0000000 )


      isym = 39     inv.  90 deg rotation - cart. axis [-1,0,0]  

 cryst.   s(39) = (     0          0         -1      )
                  (     1          0         -1      )
                  (     0          1         -1      )

 cart.    s(39) = ( -1.0000000  0.0000000  0.0000000 )
                  (  0.0000000  0.0000000 -1.0000000 )
                  (  0.0000000  1.0000000  0.0000000 )


      isym = 40     inv.  90 deg rotation - cart. axis [1,0,0]   

 cryst.   s(40) = (    -1          1          0      )
                  (    -1          0          1      )
                  (    -1          0          0      )

 cart.    s(40) = ( -1.0000000  0.0000000  0.0000000 )
                  (  0.0000000  0.0000000  1.0000000 )
                  (  0.0000000 -1.0000000  0.0000000 )


      isym = 41     inv. 120 deg rotation - cart. axis [-1,-1,-1]

 cryst.   s(41) = (     1          0         -1      )
                  (     1         -1          0      )
                  (     1          0          0      )

 cart.    s(41) = (  0.0000000 -1.0000000  0.0000000 )
                  (  0.0000000  0.0000000 -1.0000000 )
                  ( -1.0000000  0.0000000  0.0000000 )


      isym = 42     inv. 120 deg rotation - cart. axis [-1,1,1]  

 cryst.   s(42) = (     0         -1          0      )
                  (     0          0         -1      )
                  (    -1          0          0      )

 cart.    s(42) = (  0.0000000  1.0000000  0.0000000 )
                  (  0.0000000  0.0000000 -1.0000000 )
                  (  1.0000000  0.0000000  0.0000000 )


      isym = 43     inv. 120 deg rotation - cart. axis [1,1,-1]  

 cryst.   s(43) = (    -1          0          1      )
                  (     0          0          1      )
                  (     0         -1          1      )

 cart.    s(43) = (  0.0000000 -1.0000000  0.0000000 )
                  (  0.0000000  0.0000000  1.0000000 )
                  (  1.0000000  0.0000000  0.0000000 )


      isym = 44     inv. 120 deg rotation - cart. axis [1,-1,1]  

 cryst.   s(44) = (     0          1          0      )
                  (    -1          1          0      )
                  (     0          1         -1      )

 cart.    s(44) = (  0.0000000  1.0000000  0.0000000 )
                  (  0.0000000  0.0000000  1.0000000 )
                  ( -1.0000000  0.0000000  0.0000000 )


      isym = 45     inv. 120 deg rotation - cart. axis [1,1,1]   

 cryst.   s(45) = (     0          0          1      )
                  (     0         -1          1      )
                  (    -1          0          1      )

 cart.    s(45) = (  0.0000000  0.0000000 -1.0000000 )
                  ( -1.0000000  0.0000000  0.0000000 )
                  (  0.0000000 -1.0000000  0.0000000 )


      isym = 46     inv. 120 deg rotation - cart. axis [-1,1,-1] 

 cryst.   s(46) = (     1         -1          0      )
                  (     1          0          0      )
                  (     1          0         -1      )

 cart.    s(46) = (  0.0000000  0.0000000 -1.0000000 )
                  (  1.0000000  0.0000000  0.0000000 )
                  (  0.0000000  1.0000000  0.0000000 )


      isym = 47     inv. 120 deg rotation - cart. axis [1,-1,-1] 

 cryst.   s(47) = (     0          0         -1      )
                  (    -1          0          0      )
                  (     0         -1          0      )

 cart.    s(47) = (  0.0000000  0.0000000  1.0000000 )
                  (  1.0000000  0.0000000  0.0000000 )
                  (  0.0000000 -1.0000000  0.0000000 )


      isym = 48     inv. 120 deg rotation - cart. axis [-1,-1,1] 

 cryst.   s(48) = (    -1          1          0      )
                  (     0          1         -1      )
                  (     0          1          0      )

 cart.    s(48) = (  0.0000000  0.0000000  1.0000000 )
                  ( -1.0000000  0.0000000  0.0000000 )
                  (  0.0000000  1.0000000  0.0000000 )


     point group O_h (m-3m) 
     there are 10 classes
     the character table:

       E     8C3   3C2   6C4   6C2'  i     8S6   3s_h  6S4   6s_d 
A_1g   1.00  1.00  1.00  1.00  1.00  1.00  1.00  1.00  1.00  1.00
A_2g   1.00  1.00  1.00 -1.00 -1.00  1.00  1.00  1.00 -1.00 -1.00
E_g    2.00 -1.00  2.00  0.00  0.00  2.00 -1.00  2.00  0.00  0.00
T_1g   3.00  0.00 -1.00  1.00 -1.00  3.00  0.00 -1.00  1.00 -1.00
T_2g   3.00  0.00 -1.00 -1.00  1.00  3.00  0.00 -1.00 -1.00  1.00
A_1u   1.00  1.00  1.00  1.00  1.00 -1.00 -1.00 -1.00 -1.00 -1.00
A_2u   1.00  1.00  1.00 -1.00 -1.00 -1.00 -1.00 -1.00  1.00  1.00
E_u    2.00 -1.00  2.00  0.00  0.00 -2.00  1.00 -2.00  0.00  0.00
T_1u   3.00  0.00 -1.00  1.00 -1.00 -3.00  0.00  1.00 -1.00  1.00
T_2u   3.00  0.00 -1.00 -1.00  1.00 -3.00  0.00  1.00  1.00 -1.00

     the symmetry operations in each class and the name of the first element:

     E        1
          identity                                               
     8C3     17   19   20   18   24   21   22   23
          120 deg rotation - cart. axis [-1,-1,-1]               
     3C2      2    4    3
          180 deg rotation - cart. axis [0,0,1]                  
     6C4      7    8   15   16   12   11
           90 deg rotation - cart. axis [0,0,-1]                 
     6C2'     5    6   14   13   10    9
          180 deg rotation - cart. axis [1,1,0]                  
     i       25
          inversion                                              
     8S6     41   43   44   42   48   45   46   47
          inv. 120 deg rotation - cart. axis [-1,-1,-1]          
     3s_h    26   28   27
          inv. 180 deg rotation - cart. axis [0,0,1]             
     6S4     31   32   39   40   36   35
          inv.  90 deg rotation - cart. axis [0,0,-1]            
     6s_d    29   30   38   37   34   33
          inv. 180 deg rotation - cart. axis [1,1,0]             

   Cartesian axes

     site n.     atom                  positions (alat units)
         1           Ni  tau(   1) = (   0.0000000   0.0000000   0.0000000  )

   Crystallographic axes

     site n.     atom                  positions (cryst. coord.)
         1           Ni  tau(   1) = (  0.0000000  0.0000000  0.0000000  )

     number of k points=   120  Methfessel-Paxton smearing, width (Ry)=  0.0200
                       cart. coord. in units 2pi/alat
        k(    1) = (   0.0625000   0.0625000   0.0625000), wk =   0.0039062
        k(    2) = (   0.0625000   0.0625000   0.1875000), wk =   0.0117188
        k(    3) = (   0.0625000   0.0625000   0.3125000), wk =   0.0117188
        k(    4) = (   0.0625000   0.0625000   0.4375000), wk =   0.0117188
        k(    5) = (   0.0625000   0.0625000   0.5625000), wk =   0.0117188
        k(    6) = (   0.0625000   0.0625000   0.6875000), wk =   0.0117188
        k(    7) = (   0.0625000   0.0625000   0.8125000), wk =   0.0117188
        k(    8) = (   0.0625000   0.0625000   0.9375000), wk =   0.0117188
        k(    9) = (   0.0625000   0.1875000   0.1875000), wk =   0.0117188
        k(   10) = (   0.0625000   0.1875000   0.3125000), wk =   0.0234375
        k(   11) = (   0.0625000   0.1875000   0.4375000), wk =   0.0234375
        k(   12) = (   0.0625000   0.1875000   0.5625000), wk =   0.0234375
        k(   13) = (   0.0625000   0.1875000   0.6875000), wk =   0.0234375
        k(   14) = (   0.0625000   0.1875000   0.8125000), wk =   0.0234375
        k(   15) = (   0.0625000   0.1875000   0.9375000), wk =   0.0234375
        k(   16) = (   0.0625000   0.3125000   0.3125000), wk =   0.0117188
        k(   17) = (   0.0625000   0.3125000   0.4375000), wk =   0.0234375
        k(   18) = (   0.0625000   0.3125000   0.5625000), wk =   0.0234375
        k(   19) = (   0.0625000   0.3125000   0.6875000), wk =   0.0234375
        k(   20) = (   0.0625000   0.3125000   0.8125000), wk =   0.0234375
        k(   21) = (   0.0625000   0.3125000   0.9375000), wk =   0.0234375
        k(   22) = (   0.0625000   0.4375000   0.4375000), wk =   0.0117188
        k(   23) = (   0.0625000   0.4375000   0.5625000), wk =   0.0234375
        k(   24) = (   0.0625000   0.4375000   0.6875000), wk =   0.0234375
        k(   25) = (   0.0625000   0.4375000   0.8125000), wk =   0.0234375
        k(   26) = (   0.0625000   0.4375000   0.9375000), wk =   0.0234375
        k(   27) = (   0.0625000   0.5625000   0.5625000), wk =   0.0117188
        k(   28) = (   0.0625000   0.5625000   0.6875000), wk =   0.0234375
        k(   29) = (   0.0625000   0.5625000   0.8125000), wk =   0.0234375
        k(   30) = (   0.0625000   0.6875000   0.6875000), wk =   0.0117188
        k(   31) = (   0.0625000   0.6875000   0.8125000), wk =   0.0234375
        k(   32) = (   0.0625000   0.8125000   0.8125000), wk =   0.0117188
        k(   33) = (   0.1875000   0.1875000   0.1875000), wk =   0.0039062
        k(   34) = (   0.1875000   0.1875000   0.3125000), wk =   0.0117188
        k(   35) = (   0.1875000   0.1875000   0.4375000), wk =   0.0117188
        k(   36) = (   0.1875000   0.1875000   0.5625000), wk =   0.0117188
        k(   37) = (   0.1875000   0.1875000   0.6875000), wk =   0.0117188
        k(   38) = (   0.1875000   0.1875000   0.8125000), wk =   0.0117188
        k(   39) = (   0.1875000   0.3125000   0.3125000), wk =   0.0117188
        k(   40) = (   0.1875000   0.3125000   0.4375000), wk =   0.0234375
        k(   41) = (   0.1875000   0.3125000   0.5625000), wk =   0.0234375
        k(   42) = (   0.1875000   0.3125000   0.6875000), wk =   0.0234375
        k(   43) = (   0.1875000   0.3125000   0.8125000), wk =   0.0234375
        k(   44) = (   0.1875000   0.4375000   0.4375000), wk =   0.0117188
        k(   45) = (   0.1875000   0.4375000   0.5625000), wk =   0.0234375
        k(   46) = (   0.1875000   0.4375000   0.6875000), wk =   0.0234375
        k(   47) = (   0.1875000   0.4375000   0.8125000), wk =   0.0234375
        k(   48) = (   0.1875000   0.5625000   0.5625000), wk =   0.0117188
        k(   49) = (   0.1875000   0.5625000   0.6875000), wk =   0.0234375
        k(   50) = (   0.1875000   0.6875000   0.6875000), wk =   0.0117188
        k(   51) = (   0.3125000   0.3125000   0.3125000), wk =   0.0039062
        k(   52) = (   0.3125000   0.3125000   0.4375000), wk =   0.0117188
        k(   53) = (   0.3125000   0.3125000   0.5625000), wk =   0.0117188
        k(   54) = (   0.3125000   0.3125000   0.6875000), wk =   0.0117188
        k(   55) = (   0.3125000   0.4375000   0.4375000), wk =   0.0117188
        k(   56) = (   0.3125000   0.4375000   0.5625000), wk =   0.0234375
        k(   57) = (   0.3125000   0.4375000   0.6875000), wk =   0.0234375
        k(   58) = (   0.3125000   0.5625000   0.5625000), wk =   0.0117188
        k(   59) = (   0.4375000   0.4375000   0.4375000), wk =   0.0039062
        k(   60) = (   0.4375000   0.4375000   0.5625000), wk =   0.0117188
        k(   61) = (   0.0625000   0.0625000   0.0625000), wk =   0.0039062
        k(   62) = (   0.0625000   0.0625000   0.1875000), wk =   0.0117188
        k(   63) = (   0.0625000   0.0625000   0.3125000), wk =   0.0117188
        k(   64) = (   0.0625000   0.0625000   0.4375000), wk =   0.0117188
        k(   65) = (   0.0625000   0.0625000   0.5625000), wk =   0.0117188
        k(   66) = (   0.0625000   0.0625000   0.6875000), wk =   0.0117188
        k(   67) = (   0.0625000   0.0625000   0.8125000), wk =   0.0117188
        k(   68) = (   0.0625000   0.0625000   0.9375000), wk =   0.0117188
        k(   69) = (   0.0625000   0.1875000   0.1875000), wk =   0.0117188
        k(   70) = (   0.0625000   0.1875000   0.3125000), wk =   0.0234375
        k(   71) = (   0.0625000   0.1875000   0.4375000), wk =   0.0234375
        k(   72) = (   0.0625000   0.1875000   0.5625000), wk =   0.0234375
        k(   73) = (   0.0625000   0.1875000   0.6875000), wk =   0.0234375
        k(   74) = (   0.0625000   0.1875000   0.8125000), wk =   0.0234375
        k(   75) = (   0.0625000   0.1875000   0.9375000), wk =   0.0234375
        k(   76) = (   0.0625000   0.3125000   0.3125000), wk =   0.0117188
        k(   77) = (   0.0625000   0.3125000   0.4375000), wk =   0.0234375
        k(   78) = (   0.0625000   0.3125000   0.5625000), wk =   0.0234375
        k(   79) = (   0.0625000   0.3125000   0.6875000), wk =   0.0234375
        k(   80) = (   0.0625000   0.3125000   0.8125000), wk =   0.0234375
        k(   81) = (   0.0625000   0.3125000   0.9375000), wk =   0.0234375
        k(   82) = (   0.0625000   0.4375000   0.4375000), wk =   0.0117188
        k(   83) = (   0.0625000   0.4375000   0.5625000), wk =   0.0234375
        k(   84) = (   0.0625000   0.4375000   0.6875000), wk =   0.0234375
        k(   85) = (   0.0625000   0.4375000   0.8125000), wk =   0.0234375
        k(   86) = (   0.0625000   0.4375000   0.9375000), wk =   0.0234375
        k(   87) = (   0.0625000   0.5625000   0.5625000), wk =   0.0117188
        k(   88) = (   0.0625000   0.5625000   0.6875000), wk =   0.0234375
        k(   89) = (   0.0625000   0.5625000   0.8125000), wk =   0.0234375
        k(   90) = (   0.0625000   0.6875000   0.6875000), wk =   0.0117188
        k(   91) = (   0.0625000   0.6875000   0.8125000), wk =   0.0234375
        k(   92) = (   0.0625000   0.8125000   0.8125000), wk =   0.0117188
        k(   93) = (   0.1875000   0.1875000   0.1875000), wk =   0.0039062
        k(   94) = (   0.1875000   0.1875000   0.3125000), wk =   0.0117188
        k(   95) = (   0.1875000   0.1875000   0.4375000), wk =   0.0117188
        k(   96) = (   0.1875000   0.1875000   0.5625000), wk =   0.0117188
        k(   97) = (   0.1875000   0.1875000   0.6875000), wk =   0.0117188
        k(   98) = (   0.1875000   0.1875000   0.8125000), wk =   0.0117188
        k(   99) = (   0.1875000   0.3125000   0.3125000), wk =   0.0117188
        k(  100) = (   0.1875000   0.3125000   0.4375000), wk =   0.0234375
        k(  101) = (   0.1875000   0.3125000   0.5625000), wk =   0.0234375
        k(  102) = (   0.1875000   0.3125000   0.6875000), wk =   0.0234375
        k(  103) = (   0.1875000   0.3125000   0.8125000), wk =   0.0234375
        k(  104) = (   0.1875000   0.4375000   0.4375000), wk =   0.0117188
        k(  105) = (   0.1875000   0.4375000   0.5625000), wk =   0.0234375
        k(  106) = (   0.1875000   0.4375000   0.6875000), wk =   0.0234375
        k(  107) = (   0.1875000   0.4375000   0.8125000), wk =   0.0234375
        k(  108) = (   0.1875000   0.5625000   0.5625000), wk =   0.0117188
        k(  109) = (   0.1875000   0.5625000   0.6875000), wk =   0.0234375
        k(  110) = (   0.1875000   0.6875000   0.6875000), wk =   0.0117188
        k(  111) = (   0.3125000   0.3125000   0.3125000), wk =   0.0039062
        k(  112) = (   0.3125000   0.3125000   0.4375000), wk =   0.0117188
        k(  113) = (   0.3125000   0.3125000   0.5625000), wk =   0.0117188
        k(  114) = (   0.3125000   0.3125000   0.6875000), wk =   0.0117188
        k(  115) = (   0.3125000   0.4375000   0.4375000), wk =   0.0117188
        k(  116) = (   0.3125000   0.4375000   0.5625000), wk =   0.0234375
        k(  117) = (   0.3125000   0.4375000   0.6875000), wk =   0.0234375
        k(  118) = (   0.3125000   0.5625000   0.5625000), wk =   0.0117188
        k(  119) = (   0.4375000   0.4375000   0.4375000), wk =   0.0039062
        k(  120) = (   0.4375000   0.4375000   0.5625000), wk =   0.0117188

                       cryst. coord.
        k(    1) = (   0.0000000   0.0625000   0.0000000), wk =   0.0039062
        k(    2) = (   0.0625000   0.1250000   0.0000000), wk =   0.0117188
        k(    3) = (   0.1250000   0.1875000   0.0000000), wk =   0.0117188
        k(    4) = (   0.1875000   0.2500000   0.0000000), wk =   0.0117188
        k(    5) = (   0.2500000   0.3125000   0.0000000), wk =   0.0117188
        k(    6) = (   0.3125000   0.3750000   0.0000000), wk =   0.0117188
        k(    7) = (   0.3750000   0.4375000   0.0000000), wk =   0.0117188
        k(    8) = (   0.4375000   0.5000000   0.0000000), wk =   0.0117188
        k(    9) = (   0.0625000   0.1875000   0.0625000), wk =   0.0117188
        k(   10) = (   0.1250000   0.2500000   0.0625000), wk =   0.0234375
        k(   11) = (   0.1875000   0.3125000   0.0625000), wk =   0.0234375
        k(   12) = (   0.2500000   0.3750000   0.0625000), wk =   0.0234375
        k(   13) = (   0.3125000   0.4375000   0.0625000), wk =   0.0234375
        k(   14) = (   0.3750000   0.5000000   0.0625000), wk =   0.0234375
        k(   15) = (   0.4375000   0.5625000   0.0625000), wk =   0.0234375
        k(   16) = (   0.1250000   0.3125000   0.1250000), wk =   0.0117188
        k(   17) = (   0.1875000   0.3750000   0.1250000), wk =   0.0234375
        k(   18) = (   0.2500000   0.4375000   0.1250000), wk =   0.0234375
        k(   19) = (   0.3125000   0.5000000   0.1250000), wk =   0.0234375
        k(   20) = (   0.3750000   0.5625000   0.1250000), wk =   0.0234375
        k(   21) = (   0.4375000   0.6250000   0.1250000), wk =   0.0234375
        k(   22) = (   0.1875000   0.4375000   0.1875000), wk =   0.0117188
        k(   23) = (   0.2500000   0.5000000   0.1875000), wk =   0.0234375
        k(   24) = (   0.3125000   0.5625000   0.1875000), wk =   0.0234375
        k(   25) = (   0.3750000   0.6250000   0.1875000), wk =   0.0234375
        k(   26) = (   0.4375000   0.6875000   0.1875000), wk =   0.0234375
        k(   27) = (   0.2500000   0.5625000   0.2500000), wk =   0.0117188
        k(   28) = (   0.3125000   0.6250000   0.2500000), wk =   0.0234375
        k(   29) = (   0.3750000   0.6875000   0.2500000), wk =   0.0234375
        k(   30) = (   0.3125000   0.6875000   0.3125000), wk =   0.0117188
        k(   31) = (   0.3750000   0.7500000   0.3125000), wk =   0.0234375
        k(   32) = (   0.3750000   0.8125000   0.3750000), wk =   0.0117188
        k(   33) = (   0.0000000   0.1875000   0.0000000), wk =   0.0039062
        k(   34) = (   0.0625000   0.2500000   0.0000000), wk =   0.0117188
        k(   35) = (   0.1250000   0.3125000   0.0000000), wk =   0.0117188
        k(   36) = (   0.1875000   0.3750000   0.0000000), wk =   0.0117188
        k(   37) = (   0.2500000   0.4375000   0.0000000), wk =   0.0117188
        k(   38) = (   0.3125000   0.5000000   0.0000000), wk =   0.0117188
        k(   39) = (   0.0625000   0.3125000   0.0625000), wk =   0.0117188
        k(   40) = (   0.1250000   0.3750000   0.0625000), wk =   0.0234375
        k(   41) = (   0.1875000   0.4375000   0.0625000), wk =   0.0234375
        k(   42) = (   0.2500000   0.5000000   0.0625000), wk =   0.0234375
        k(   43) = (   0.3125000   0.5625000   0.0625000), wk =   0.0234375
        k(   44) = (   0.1250000   0.4375000   0.1250000), wk =   0.0117188
        k(   45) = (   0.1875000   0.5000000   0.1250000), wk =   0.0234375
        k(   46) = (   0.2500000   0.5625000   0.1250000), wk =   0.0234375
        k(   47) = (   0.3125000   0.6250000   0.1250000), wk =   0.0234375
        k(   48) = (   0.1875000   0.5625000   0.1875000), wk =   0.0117188
        k(   49) = (   0.2500000   0.6250000   0.1875000), wk =   0.0234375
        k(   50) = (   0.2500000   0.6875000   0.2500000), wk =   0.0117188
        k(   51) = (   0.0000000   0.3125000   0.0000000), wk =   0.0039062
        k(   52) = (   0.0625000   0.3750000   0.0000000), wk =   0.0117188
        k(   53) = (   0.1250000   0.4375000   0.0000000), wk =   0.0117188
        k(   54) = (   0.1875000   0.5000000   0.0000000), wk =   0.0117188
        k(   55) = (   0.0625000   0.4375000   0.0625000), wk =   0.0117188
        k(   56) = (   0.1250000   0.5000000   0.0625000), wk =   0.0234375
        k(   57) = (   0.1875000   0.5625000   0.0625000), wk =   0.0234375
        k(   58) = (   0.1250000   0.5625000   0.1250000), wk =   0.0117188
        k(   59) = (   0.0000000   0.4375000   0.0000000), wk =   0.0039062
        k(   60) = (   0.0625000   0.5000000   0.0000000), wk =   0.0117188
        k(   61) = (   0.0000000   0.0625000   0.0000000), wk =   0.0039062
        k(   62) = (   0.0625000   0.1250000   0.0000000), wk =   0.0117188
        k(   63) = (   0.1250000   0.1875000   0.0000000), wk =   0.0117188
        k(   64) = (   0.1875000   0.2500000   0.0000000), wk =   0.0117188
        k(   65) = (   0.2500000   0.3125000   0.0000000), wk =   0.0117188
        k(   66) = (   0.3125000   0.3750000   0.0000000), wk =   0.0117188
        k(   67) = (   0.3750000   0.4375000   0.0000000), wk =   0.0117188
        k(   68) = (   0.4375000   0.5000000   0.0000000), wk =   0.0117188
        k(   69) = (   0.0625000   0.1875000   0.0625000), wk =   0.0117188
        k(   70) = (   0.1250000   0.2500000   0.0625000), wk =   0.0234375
        k(   71) = (   0.1875000   0.3125000   0.0625000), wk =   0.0234375
        k(   72) = (   0.2500000   0.3750000   0.0625000), wk =   0.0234375
        k(   73) = (   0.3125000   0.4375000   0.0625000), wk =   0.0234375
        k(   74) = (   0.3750000   0.5000000   0.0625000), wk =   0.0234375
        k(   75) = (   0.4375000   0.5625000   0.0625000), wk =   0.0234375
        k(   76) = (   0.1250000   0.3125000   0.1250000), wk =   0.0117188
        k(   77) = (   0.1875000   0.3750000   0.1250000), wk =   0.0234375
        k(   78) = (   0.2500000   0.4375000   0.1250000), wk =   0.0234375
        k(   79) = (   0.3125000   0.5000000   0.1250000), wk =   0.0234375
        k(   80) = (   0.3750000   0.5625000   0.1250000), wk =   0.0234375
        k(   81) = (   0.4375000   0.6250000   0.1250000), wk =   0.0234375
        k(   82) = (   0.1875000   0.4375000   0.1875000), wk =   0.0117188
        k(   83) = (   0.2500000   0.5000000   0.1875000), wk =   0.0234375
        k(   84) = (   0.3125000   0.5625000   0.1875000), wk =   0.0234375
        k(   85) = (   0.3750000   0.6250000   0.1875000), wk =   0.0234375
        k(   86) = (   0.4375000   0.6875000   0.1875000), wk =   0.0234375
        k(   87) = (   0.2500000   0.5625000   0.2500000), wk =   0.0117188
        k(   88) = (   0.3125000   0.6250000   0.2500000), wk =   0.0234375
        k(   89) = (   0.3750000   0.6875000   0.2500000), wk =   0.0234375
        k(   90) = (   0.3125000   0.6875000   0.3125000), wk =   0.0117188
        k(   91) = (   0.3750000   0.7500000   0.3125000), wk =   0.0234375
        k(   92) = (   0.3750000   0.8125000   0.3750000), wk =   0.0117188
        k(   93) = (   0.0000000   0.1875000   0.0000000), wk =   0.0039062
        k(   94) = (   0.0625000   0.2500000   0.0000000), wk =   0.0117188
        k(   95) = (   0.1250000   0.3125000   0.0000000), wk =   0.0117188
        k(   96) = (   0.1875000   0.3750000   0.0000000), wk =   0.0117188
        k(   97) = (   0.2500000   0.4375000   0.0000000), wk =   0.0117188
        k(   98) = (   0.3125000   0.5000000   0.0000000), wk =   0.0117188
        k(   99) = (   0.0625000   0.3125000   0.0625000), wk =   0.0117188
        k(  100) = (   0.1250000   0.3750000   0.0625000), wk =   0.0234375
        k(  101) = (   0.1875000   0.4375000   0.0625000), wk =   0.0234375
        k(  102) = (   0.2500000   0.5000000   0.0625000), wk =   0.0234375
        k(  103) = (   0.3125000   0.5625000   0.0625000), wk =   0.0234375
        k(  104) = (   0.1250000   0.4375000   0.1250000), wk =   0.0117188
        k(  105) = (   0.1875000   0.5000000   0.1250000), wk =   0.0234375
        k(  106) = (   0.2500000   0.5625000   0.1250000), wk =   0.0234375
        k(  107) = (   0.3125000   0.6250000   0.1250000), wk =   0.0234375
        k(  108) = (   0.1875000   0.5625000   0.1875000), wk =   0.0117188
        k(  109) = (   0.2500000   0.6250000   0.1875000), wk =   0.0234375
        k(  110) = (   0.2500000   0.6875000   0.2500000), wk =   0.0117188
        k(  111) = (   0.0000000   0.3125000   0.0000000), wk =   0.0039062
        k(  112) = (   0.0625000   0.3750000   0.0000000), wk =   0.0117188
        k(  113) = (   0.1250000   0.4375000   0.0000000), wk =   0.0117188
        k(  114) = (   0.1875000   0.5000000   0.0000000), wk =   0.0117188
        k(  115) = (   0.0625000   0.4375000   0.0625000), wk =   0.0117188
        k(  116) = (   0.1250000   0.5000000   0.0625000), wk =   0.0234375
        k(  117) = (   0.1875000   0.5625000   0.0625000), wk =   0.0234375
        k(  118) = (   0.1250000   0.5625000   0.1250000), wk =   0.0117188
        k(  119) = (   0.0000000   0.4375000   0.0000000), wk =   0.0039062
        k(  120) = (   0.0625000   0.5000000   0.0000000), wk =   0.0117188

     Dense  grid:     5601 G-vectors     FFT dimensions: (  25,  25,  25)

     Smooth grid:     1067 G-vectors     FFT dimensions: (  15,  15,  15)

     Largest allocated arrays     est. size (Mb)     dimensions
        Kohn-Sham Wavefunctions         0.02 Mb     (     144,    9)
        NL pseudopotentials             0.04 Mb     (     144,   18)
        Each V/rho on FFT grid          0.48 Mb     (   15625,   2)
        Each G-vector array             0.04 Mb     (    5601)
        G-vector shells                 0.00 Mb     (     104)
     Largest temporary arrays     est. size (Mb)     dimensions
        Each subspace H/S matrix        0.00 Mb     (       9,    9)
        Each <psi_i|beta_j> matrix      0.00 Mb     (      18,    9)
        Arrays for rho mixing           1.91 Mb     (   15625,    8)

     Check: negative/imaginary core charge=   -0.000015    0.000000

     Initial potential from superposition of free atoms

     starting charge    9.99966, renormalised to   10.00000
     Starting wfc are    6 randomized atomic wfcs +    3 random wfc

     total cpu time spent up to now is        1.7 secs

     per-process dynamical memory:    10.8 Mb

     Self-consistent Calculation

     iteration #  1     ecut=    24.00 Ry     beta=0.70
     CG style diagonalization
     ethr =  1.00E-02,  avg # of iterations =  4.4
 
     Magnetic moment per site:
     atom:    1    charge:    8.4500    magn:    3.1479    constr:    0.0000

     total cpu time spent up to now is        2.7 secs

     total energy              =     -85.36096599 Ry
     Harris-Foulkes estimate   =     -85.36514502 Ry
     estimated scf accuracy    <       0.90141751 Ry

     total magnetization       =     1.84 Bohr mag/cell
     absolute magnetization    =     1.85 Bohr mag/cell

     iteration #  2     ecut=    24.00 Ry     beta=0.70
     CG style diagonalization
     ethr =  9.01E-03,  avg # of iterations =  3.2
 
     Magnetic moment per site:
     atom:    1    charge:    8.6850    magn:    2.2878    constr:    0.0000

     total cpu time spent up to now is        3.4 secs

     total energy              =     -85.54122001 Ry
     Harris-Foulkes estimate   =     -85.82958006 Ry
     estimated scf accuracy    <       0.86841827 Ry

     total magnetization       =     0.68 Bohr mag/cell
     absolute magnetization    =     0.80 Bohr mag/cell

     iteration #  3     ecut=    24.00 Ry     beta=0.70
     CG style diagonalization
     ethr =  8.68E-03,  avg # of iterations =  3.0
 
     Magnetic moment per site:
     atom:    1    charge:    8.6743    magn:    0.8051    constr:    0.0000

     total cpu time spent up to now is        4.1 secs

     total energy              =     -85.71078604 Ry
     Harris-Foulkes estimate   =     -85.68406274 Ry
     estimated scf accuracy    <       0.04302436 Ry

     total magnetization       =     1.00 Bohr mag/cell
     absolute magnetization    =     1.10 Bohr mag/cell

     iteration #  4     ecut=    24.00 Ry     beta=0.70
     CG style diagonalization
     ethr =  4.30E-04,  avg # of iterations =  3.0
 
     Magnetic moment per site:
     atom:    1    charge:    8.6835    magn:    0.6578    constr:    0.0000

     total cpu time spent up to now is        4.7 secs

     total energy              =     -85.72197191 Ry
     Harris-Foulkes estimate   =     -85.72140004 Ry
     estimated scf accuracy    <       0.00131660 Ry

     total magnetization       =     0.62 Bohr mag/cell
     absolute magnetization    =     0.74 Bohr mag/cell

     iteration #  5     ecut=    24.00 Ry     beta=0.70
     CG style diagonalization
     ethr =  1.32E-05,  avg # of iterations =  3.4
 
     Magnetic moment per site:
     atom:    1    charge:    8.6879    magn:    0.5873    constr:    0.0000

     total cpu time spent up to now is        5.5 secs

     total energy              =     -85.72236901 Ry
     Harris-Foulkes estimate   =     -85.72222338 Ry
     estimated scf accuracy    <       0.00023033 Ry

     total magnetization       =     0.58 Bohr mag/cell
     absolute magnetization    =     0.68 Bohr mag/cell

     iteration #  6     ecut=    24.00 Ry     beta=0.70
     CG style diagonalization
     ethr =  2.30E-06,  avg # of iterations =  3.4
 
     Magnetic moment per site:
     atom:    1    charge:    8.6890    magn:    0.6199    constr:    0.0000

     total cpu time spent up to now is        6.2 secs

     total energy              =     -85.72248656 Ry
     Harris-Foulkes estimate   =     -85.72248257 Ry
     estimated scf accuracy    <       0.00003069 Ry

     total magnetization       =     0.58 Bohr mag/cell
     absolute magnetization    =     0.65 Bohr mag/cell

     iteration #  7     ecut=    24.00 Ry     beta=0.70
     CG style diagonalization
     ethr =  3.07E-07,  avg # of iterations =  3.0
 
     Magnetic moment per site:
     atom:    1    charge:    8.6894    magn:    0.6059    constr:    0.0000

     total cpu time spent up to now is        6.9 secs

     total energy              =     -85.72249034 Ry
     Harris-Foulkes estimate   =     -85.72248982 Ry
     estimated scf accuracy    <       0.00000225 Ry

     total magnetization       =     0.58 Bohr mag/cell
     absolute magnetization    =     0.65 Bohr mag/cell

     iteration #  8     ecut=    24.00 Ry     beta=0.70
     CG style diagonalization
     ethr =  2.25E-08,  avg # of iterations =  3.2
 
     Magnetic moment per site:
     atom:    1    charge:    8.6892    magn:    0.6114    constr:    0.0000

     total cpu time spent up to now is        7.6 secs

     total energy              =     -85.72249130 Ry
     Harris-Foulkes estimate   =     -85.72249087 Ry
     estimated scf accuracy    <       0.00000101 Ry

     total magnetization       =     0.58 Bohr mag/cell
     absolute magnetization    =     0.65 Bohr mag/cell

     iteration #  9     ecut=    24.00 Ry     beta=0.70
     CG style diagonalization
     ethr =  1.01E-08,  avg # of iterations =  3.0
 
     Magnetic moment per site:
     atom:    1    charge:    8.6892    magn:    0.6111    constr:    0.0000

     total cpu time spent up to now is        8.3 secs

     End of self-consistent calculation

 ------ SPIN UP ------------


          k = 0.0625 0.0625 0.0625 (   137 PWs)   bands (ev):

     5.9120  12.6401  12.7235  12.7235  13.9672  13.9672  39.4726  42.4109
    44.0014

     occupation numbers 
     1.0000   1.0000   1.0000   1.0000   1.0000   1.0000  -0.0000  -0.0000
    -0.0000

          k = 0.0625 0.0625 0.1875 (   137 PWs)   bands (ev):

     6.3390  12.4939  12.8361  12.8409  13.8264  14.0337  38.2933  40.8113
    41.8234

     occupation numbers 
     1.0000   1.0000   1.0000   1.0000   1.0000   1.0000  -0.0000  -0.0000
    -0.0000

          k = 0.0625 0.0625 0.3125 (   136 PWs)   bands (ev):

     7.1584  12.2109  13.0524  13.0698  13.6128  14.1569  36.6038  39.3135
    39.3758

     occupation numbers 
     1.0000   1.0000   1.0000   1.0000   1.0000   1.0000  -0.0000  -0.0000
    -0.0000

          k = 0.0625 0.0625 0.4375 (   135 PWs)   bands (ev):

     8.2720  11.8505  13.1516  13.3955  13.6433  14.3188  34.7983  36.9240
    37.9143

     occupation numbers 
     1.0000   1.0000   1.0000   1.0000   1.0000   1.0000  -0.0000  -0.0000
    -0.0000

          k = 0.0625 0.0625 0.5625 (   135 PWs)   bands (ev):

     9.4203  11.4728  13.1991  13.7874  14.1061  14.4958  33.0561  34.8021
    35.0427

     occupation numbers 
     1.0000   1.0000   1.0000   1.0000   1.0000   1.0002  -0.0000  -0.0000
    -0.0000

          k = 0.0625 0.0625 0.6875 (   131 PWs)   bands (ev):

    10.1165  11.1346  13.7245  14.1927  14.6627  14.9101  31.2033  31.8423
    33.0617

     occupation numbers 
     1.0000   1.0000   1.0000   1.0000   1.0027   1.0323  -0.0000  -0.0000
    -0.0000

          k = 0.0625 0.0625 0.8125 (   131 PWs)   bands (ev):

    10.2636  10.8825  14.3316  14.5325  14.7985  16.3746  28.0531  30.5458
    31.8084

     occupation numbers 
     1.0000   1.0000   1.0000   1.0003   1.0146  -0.0000  -0.0000  -0.0000
    -0.0000

          k = 0.0625 0.0625 0.9375 (   131 PWs)   bands (ev):

    10.2377  10.7485  14.6331  14.7176  14.8871  17.9390  25.6718  29.9311
    31.1465

     occupation numbers 
     1.0000   1.0000   1.0018   1.0058   1.0289  -0.0000  -0.0000  -0.0000
    -0.0000

          k = 0.0625 0.1875 0.1875 (   140 PWs)   bands (ev):

     6.7532  12.4198  12.8933  12.8975  13.8046  14.0430  36.2755  39.1047
    42.8592

     occupation numbers 
     1.0000   1.0000   1.0000   1.0000   1.0000   1.0000  -0.0000  -0.0000
    -0.0000

          k = 0.0625 0.1875 0.3125 (   138 PWs)   bands (ev):

     7.5452  12.2046  12.9777  13.0813  13.6868  14.2125  34.2597  37.1139
    41.9176

     occupation numbers 
     1.0000   1.0000   1.0000   1.0000   1.0000   1.0000  -0.0000  -0.0000
    -0.0000

          k = 0.0625 0.1875 0.4375 (   138 PWs)   bands (ev):

     8.6157  11.8967  12.9164  13.3632  13.8097  14.4734  32.4181  35.2311
    39.3632

     occupation numbers 
     1.0000   1.0000   1.0000   1.0000   1.0000   1.0001  -0.0000  -0.0000
    -0.0000

          k = 0.0625 0.1875 0.5625 (   138 PWs)   bands (ev):

     9.7155  11.5622  12.8188  13.7138  14.2261  14.8741  30.7918  33.4967
    35.6958

     occupation numbers 
     1.0000   1.0000   1.0000   1.0000   1.0000   1.0268  -0.0000  -0.0000
    -0.0000

          k = 0.0625 0.1875 0.6875 (   135 PWs)   bands (ev):

    10.3793  11.2563  13.0672  14.0980  14.5776  15.7747  29.4218  31.5621
    32.4411

     occupation numbers 
     1.0000   1.0000   1.0000   1.0000   1.0007  -0.0148  -0.0000  -0.0000
    -0.0000

          k = 0.0625 0.1875 0.8125 (   131 PWs)   bands (ev):

    10.5002  11.0253  13.5612  14.4139  14.7599  17.3449  28.0922  28.6879
    31.1642

     occupation numbers 
     1.0000   1.0000   1.0000   1.0000   1.0097  -0.0000  -0.0000  -0.0000
    -0.0000

          k = 0.0625 0.1875 0.9375 (   129 PWs)   bands (ev):

    10.4586  10.9026  13.9043  14.5421  14.8703  18.9888  25.7859  27.9626
    30.5806

     occupation numbers 
     1.0000   1.0000   1.0000   1.0004   1.0262  -0.0000  -0.0000  -0.0000
    -0.0000

          k = 0.0625 0.3125 0.3125 (   140 PWs)   bands (ev):

     8.2767  12.1318  12.9064  13.1707  13.6340  14.4851  32.1371  35.0423
    43.2095

     occupation numbers 
     1.0000   1.0000   1.0000   1.0000   1.0000   1.0001  -0.0000  -0.0000
    -0.0000

          k = 0.0625 0.3125 0.4375 (   140 PWs)   bands (ev):

     9.2452  11.9632  12.7382  13.3504  13.7362  14.9227  30.2767  33.2183
    40.3511

     occupation numbers 
     1.0000   1.0000   1.0000   1.0000   1.0000   1.0337  -0.0000  -0.0000
    -0.0000

          k = 0.0625 0.3125 0.5625 (   138 PWs)   bands (ev):

    10.2213  11.7372  12.4838  13.6346  14.0802  15.5988  28.6800  31.6638
    36.3664

     occupation numbers 
     1.0000   1.0000   1.0000   1.0000   1.0000  -0.0344  -0.0000  -0.0000
    -0.0000

          k = 0.0625 0.3125 0.6875 (   133 PWs)   bands (ev):

    10.8203  11.4995  12.4573  13.9652  14.4287  16.7886  27.3679  30.3865
    32.5389

     occupation numbers 
     1.0000   1.0000   1.0000   1.0000   1.0000  -0.0000  -0.0000  -0.0000
    -0.0000

          k = 0.0625 0.3125 0.8125 (   130 PWs)   bands (ev):

    10.8988  11.3070  12.7650  14.1826  14.6918  18.5758  26.3889  28.7462
    29.8040

     occupation numbers 
     1.0000   1.0000   1.0000   1.0000   1.0041  -0.0000  -0.0000  -0.0000
    -0.0000

          k = 0.0625 0.3125 0.9375 (   131 PWs)   bands (ev):

    10.8246  11.2090  13.0468  14.2305  14.8632  20.4640  25.6514  26.3854
    29.2117

     occupation numbers 
     1.0000   1.0000   1.0000   1.0000   1.0250  -0.0000  -0.0000  -0.0000
    -0.0000

          k = 0.0625 0.4375 0.4375 (   137 PWs)   bands (ev):

    10.0256  12.0016  12.5665  13.3426  13.7716  15.5598  28.4099  31.4584
    41.0969

     occupation numbers 
     1.0000   1.0000   1.0000   1.0000   1.0000  -0.0253  -0.0000  -0.0000
    -0.0000

          k = 0.0625 0.4375 0.5625 (   137 PWs)   bands (ev):

    10.7528  11.9715  12.2592  13.5022  14.0301  16.4889  26.8150  30.0153
    37.3165

     occupation numbers 
     1.0000   1.0000   1.0000   1.0000   1.0000  -0.0000  -0.0000  -0.0000
    -0.0000

          k = 0.0625 0.4375 0.6875 (   133 PWs)   bands (ev):

    11.2447  11.7946  12.0500  13.7584  14.3640  17.9337  25.5045  28.9110
    33.4079

     occupation numbers 
     1.0000   1.0000   1.0000   1.0000   1.0000  -0.0000  -0.0000  -0.0000
    -0.0000

          k = 0.0625 0.4375 0.8125 (   134 PWs)   bands (ev):

    11.2921  11.6683  12.1313  13.9141  14.6663  19.9277  24.5293  28.1124
    29.8822

     occupation numbers 
     1.0000   1.0000   1.0000   1.0000   1.0029  -0.0000  -0.0000  -0.0000
    -0.0000

          k = 0.0625 0.4375 0.9375 (   134 PWs)   bands (ev):

    11.1512  11.6593  12.2850  13.9463  14.8613  22.1139  23.9544  26.6771
    28.0355

     occupation numbers 
     1.0000   1.0000   1.0000   1.0000   1.0247  -0.0000  -0.0000  -0.0000
    -0.0000

          k = 0.0625 0.5625 0.5625 (   135 PWs)   bands (ev):

    11.1279  12.0204  12.1763  13.5100  14.1528  17.6717  25.2002  28.7034
    37.9212

     occupation numbers 
     1.0000   1.0000   1.0000   1.0000   1.0000  -0.0000  -0.0000  -0.0000
    -0.0000

          k = 0.0625 0.5625 0.6875 (   132 PWs)   bands (ev):

    11.3600  11.6825  12.2746  13.7017  14.3952  19.3046  23.8524  27.7565
    34.5389

     occupation numbers 
     1.0000   1.0000   1.0000   1.0000   1.0000  -0.0000  -0.0000  -0.0000
    -0.0000

          k = 0.0625 0.5625 0.8125 (   132 PWs)   bands (ev):

    11.3383  11.5510  12.2976  13.8723  14.6675  21.3638  22.8886  27.1404
    30.9747

     occupation numbers 
     1.0000   1.0000   1.0000   1.0000   1.0029  -0.0000  -0.0000  -0.0000
    -0.0000

          k = 0.0625 0.6875 0.6875 (   133 PWs)   bands (ev):

    11.1869  11.4832  12.6289  13.8740  14.5151  20.9384  22.5122  26.9683
    34.7729

     occupation numbers 
     1.0000   1.0000   1.0000   1.0000   1.0002  -0.0000  -0.0000  -0.0000
    -0.0000

          k = 0.0625 0.6875 0.8125 (   133 PWs)   bands (ev):

    10.9773  11.2911  12.9101  14.0924  14.6992  21.0783  23.3699  26.5024
    32.1959

     occupation numbers 
     1.0000   1.0000   1.0000   1.0000   1.0046  -0.0000  -0.0000  -0.0000
    -0.0000

          k = 0.0625 0.8125 0.8125 (   131 PWs)   bands (ev):

    10.6500  11.0393  13.5297  14.3478  14.7752  19.8116  25.2620  26.2886
    32.4298

     occupation numbers 
     1.0000   1.0000   1.0000   1.0000   1.0115  -0.0000  -0.0000  -0.0000
    -0.0000

          k = 0.1875 0.1875 0.1875 (   138 PWs)   bands (ev):

     7.1490  12.3848  12.9153  12.9153  13.9463  13.9463  33.9507  40.6190
    42.8592

     occupation numbers 
     1.0000   1.0000   1.0000   1.0000   1.0000   1.0000  -0.0000  -0.0000
    -0.0000

          k = 0.1875 0.1875 0.3125 (   141 PWs)   bands (ev):

     7.9001  12.2433  12.9542  12.9966  13.8844  14.1745  31.8263  39.5831
    40.2797

     occupation numbers 
     1.0000   1.0000   1.0000   1.0000   1.0000   1.0000  -0.0000  -0.0000
    -0.0000

          k = 0.1875 0.1875 0.4375 (   140 PWs)   bands (ev):

     8.9010  12.0027  12.8500  13.1653  14.1648  14.4266  29.9623  37.8956
    38.1474

     occupation numbers 
     1.0000   1.0000   1.0000   1.0000   1.0000   1.0000  -0.0000  -0.0000
    -0.0000

          k = 0.1875 0.1875 0.5625 (   136 PWs)   bands (ev):

     9.9125  11.7107  12.7077  13.4225  14.6481  14.9229  28.3600  35.5625
    35.8388

     occupation numbers 
     1.0000   1.0000   1.0000   1.0000   1.0022   1.0337  -0.0000  -0.0000
    -0.0000

          k = 0.1875 0.1875 0.6875 (   136 PWs)   bands (ev):

    10.5387  11.4082  12.8532  13.7436  14.7936  16.2050  27.0372  32.0230
    34.1889

     occupation numbers 
     1.0000   1.0000   1.0000   1.0000   1.0139  -0.0000  -0.0000  -0.0000
    -0.0000

          k = 0.1875 0.1875 0.8125 (   133 PWs)   bands (ev):

    10.6804  11.1642  13.2462  14.0803  14.8322  17.9971  26.0368  28.6478
    33.0298

     occupation numbers 
     1.0000   1.0000   1.0000   1.0000   1.0198  -0.0000  -0.0000  -0.0000
    -0.0000

          k = 0.1875 0.3125 0.3125 (   141 PWs)   bands (ev):

     8.5585  12.2709  12.9017  12.9799  13.9472  14.3824  29.6692  37.9511
    41.7133

     occupation numbers 
     1.0000   1.0000   1.0000   1.0000   1.0000   1.0000  -0.0000  -0.0000
    -0.0000

          k = 0.1875 0.3125 0.4375 (   140 PWs)   bands (ev):

     9.3981  12.2154  12.7535  13.0605  14.1481  14.7913  27.8105  36.2163
    40.0119

     occupation numbers 
     1.0000   1.0000   1.0000   1.0000   1.0000   1.0136  -0.0000  -0.0000
    -0.0000

          k = 0.1875 0.3125 0.5625 (   139 PWs)   bands (ev):

    10.2094  12.0263  12.5519  13.2667  14.5182  15.5526  26.2409  34.6189
    36.6545

     occupation numbers 
     1.0000   1.0000   1.0000   1.0000   1.0002  -0.0223  -0.0000  -0.0000
    -0.0000

          k = 0.1875 0.3125 0.6875 (   136 PWs)   bands (ev):

    10.7588  11.7054  12.5498  13.5597  14.7181  16.9896  24.9667  32.4881
    33.7645

     occupation numbers 
     1.0000   1.0000   1.0000   1.0000   1.0059  -0.0000  -0.0000  -0.0000
    -0.0000

          k = 0.1875 0.3125 0.8125 (   132 PWs)   bands (ev):

    10.9688  11.4202  12.7354  13.8691  14.7501  18.9805  24.0153  29.1747
    32.6896

     occupation numbers 
     1.0000   1.0000   1.0000   1.0000   1.0087  -0.0000  -0.0000  -0.0000
    -0.0000

          k = 0.1875 0.4375 0.4375 (   137 PWs)   bands (ev):

     9.9714  12.4432  12.6302  13.0291  14.1449  15.4091  25.9848  34.5169
    40.6366

     occupation numbers 
     1.0000   1.0000   1.0000   1.0000   1.0000   0.1601  -0.0000  -0.0000
    -0.0000

          k = 0.1875 0.4375 0.5625 (   135 PWs)   bands (ev):

    10.4971  12.3265  12.5147  13.1741  14.3788  16.3913  24.4790  33.0804
    37.5681

     occupation numbers 
     1.0000   1.0000   1.0000   1.0000   1.0000  -0.0000  -0.0000  -0.0000
    -0.0000

          k = 0.1875 0.4375 0.6875 (   135 PWs)   bands (ev):

    10.9359  11.9277  12.4597  13.4313  14.5929  17.9593  23.2970  31.9164
    33.8121

     occupation numbers 
     1.0000   1.0000   1.0000   1.0000   1.0009  -0.0000  -0.0000  -0.0000
    -0.0000

          k = 0.1875 0.4375 0.8125 (   135 PWs)   bands (ev):

    11.2736  11.5937  12.3713  13.6971  14.6678  19.9683  22.5287  29.9763
    31.4464

     occupation numbers 
     1.0000   1.0000   1.0000   1.0000   1.0030  -0.0000  -0.0000  -0.0000
    -0.0000

          k = 0.1875 0.5625 0.5625 (   131 PWs)   bands (ev):

    10.7557  12.1783  12.6602  13.2080  14.4331  17.5330  23.0841  31.7385
    38.3099

     occupation numbers 
     1.0000   1.0000   1.0000   1.0000   1.0000  -0.0000  -0.0000  -0.0000
    -0.0000

          k = 0.1875 0.5625 0.6875 (   129 PWs)   bands (ev):

    11.0183  11.8731  12.5732  13.4186  14.5879  18.9956  22.1673  30.7157
    34.9244

     occupation numbers 
     1.0000   1.0000   1.0000   1.0000   1.0008  -0.0000  -0.0000  -0.0000
    -0.0000

          k = 0.1875 0.6875 0.6875 (   132 PWs)   bands (ev):

    11.0170  11.6637  12.6548  13.5830  14.6893  19.4274  22.3000  29.7833
    35.2773

     occupation numbers 
     1.0000   1.0000   1.0000   1.0000   1.0040  -0.0000  -0.0000  -0.0000
    -0.0000

          k = 0.3125 0.3125 0.3125 (   144 PWs)   bands (ev):

     9.0548  12.5366  12.8685  12.8685  14.2844  14.2844  27.5124  39.4294
    41.9478

     occupation numbers 
     1.0000   1.0000   1.0000   1.0000   1.0000   1.0000  -0.0000  -0.0000
    -0.0000

          k = 0.3125 0.3125 0.4375 (   141 PWs)   bands (ev):

     9.6440  12.7230  12.7665  12.8800  14.5674  14.5757  25.6925  38.4692
    39.6464

     occupation numbers 
     1.0000   1.0000   1.0000   1.0000   1.0006   1.0007  -0.0000  -0.0000
    -0.0000

          k = 0.3125 0.3125 0.5625 (   140 PWs)   bands (ev):

    10.2054  12.4174  12.7650  13.0184  14.7457  15.6518  24.1998  36.5086
    37.7393

     occupation numbers 
     1.0000   1.0000   1.0000   1.0000   1.0082  -0.0337  -0.0000  -0.0000
    -0.0000

          k = 0.3125 0.3125 0.6875 (   134 PWs)   bands (ev):

    10.6755  12.0088  12.7073  13.2667  14.7870  17.3639  23.0422  33.2019
    36.2735

     occupation numbers 
     1.0000   1.0000   1.0000   1.0000   1.0130  -0.0000  -0.0000  -0.0000
    -0.0000

          k = 0.3125 0.4375 0.4375 (   140 PWs)   bands (ev):

     9.9303  12.6997  12.8051  13.2792  14.4725  15.0933  23.9722  37.4846
    40.2945

     occupation numbers 
     1.0000   1.0000   1.0000   1.0000   1.0001   0.9644  -0.0000  -0.0000
    -0.0000

          k = 0.3125 0.4375 0.5625 (   136 PWs)   bands (ev):

    10.2527  12.5022  12.8954  13.2314  14.6593  16.1514  22.6703  36.1714
    38.2403

     occupation numbers 
     1.0000   1.0000   1.0000   1.0000   1.0026  -0.0000  -0.0000  -0.0000
    -0.0000

          k = 0.3125 0.4375 0.6875 (   134 PWs)   bands (ev):

    10.6205  12.1882  12.9089  13.1232  14.7084  17.7230  21.8907  34.0190
    35.8118

     occupation numbers 
     1.0000   1.0000   1.0000   1.0000   1.0052  -0.0000  -0.0000  -0.0000
    -0.0000

          k = 0.3125 0.5625 0.5625 (   131 PWs)   bands (ev):

    10.3871  12.4128  12.9283  13.2779  14.6632  16.9658  21.7835  35.0549
    39.0775

     occupation numbers 
     1.0000   1.0000   1.0000   1.0000   1.0028  -0.0000  -0.0000  -0.0000
    -0.0000

          k = 0.4375 0.4375 0.4375 (   135 PWs)   bands (ev):

     9.9676  12.7084  12.7084  14.3519  14.6898  14.6898  22.5007  38.4627
    41.4620

     occupation numbers 
     1.0000   1.0000   1.0000   1.0000   1.0040   1.0040  -0.0000  -0.0000
    -0.0000

          k = 0.4375 0.4375 0.5625 (   135 PWs)   bands (ev):

    10.1166  12.6118  12.7517  13.9392  14.7571  15.8139  21.6820  37.6851
    40.1864

     occupation numbers 
     1.0000   1.0000   1.0000   1.0000   1.0094  -0.0098  -0.0000  -0.0000
    -0.0000

 ------ SPIN DOWN ----------


          k = 0.0625 0.0625 0.0625 (   137 PWs)   bands (ev):

     5.9423  13.2919  13.3810  13.3810  14.5690  14.5690  39.4758  42.4457
    44.0457

     occupation numbers 
     1.0000   1.0000   1.0000   1.0000   1.0006   1.0006  -0.0000  -0.0000
    -0.0000

          k = 0.0625 0.0625 0.1875 (   137 PWs)   bands (ev):

     6.3696  13.1353  13.4958  13.5007  14.4208  14.6386  38.3636  40.8365
    41.9152

     occupation numbers 
     1.0000   1.0000   1.0000   1.0000   1.0000   1.0019  -0.0000  -0.0000
    -0.0000

          k = 0.0625 0.0625 0.3125 (   136 PWs)   bands (ev):

     7.1915  12.8346  13.7095  13.7342  14.1981  14.7678  36.7186  39.4224
    39.4233

     occupation numbers 
     1.0000   1.0000   1.0000   1.0000   1.0000   1.0106  -0.0000  -0.0000
    -0.0000

          k = 0.0625 0.0625 0.4375 (   135 PWs)   bands (ev):

     8.3188  12.4526  13.7351  14.0673  14.2766  14.9387  34.9274  37.0338
    37.9863

     occupation numbers 
     1.0000   1.0000   1.0000   1.0000   1.0000   1.0350  -0.0000  -0.0000
    -0.0000

          k = 0.0625 0.0625 0.5625 (   135 PWs)   bands (ev):

     9.5245  12.0534  13.7062  14.4681  14.7453  15.1284  33.1823  34.9012
    35.1551

     occupation numbers 
     1.0000   1.0000   1.0000   1.0001   1.0082   0.9128  -0.0000  -0.0000
    -0.0000

          k = 0.0625 0.0625 0.6875 (   131 PWs)   bands (ev):

    10.3520  11.6971  14.1954  14.8773  15.3164  15.4383  31.3478  31.9672
    33.1431

     occupation numbers 
     1.0000   1.0000   1.0000   1.0273   0.4103   0.1013  -0.0000  -0.0000
    -0.0000

          k = 0.0625 0.0625 0.8125 (   131 PWs)   bands (ev):

    10.5986  11.4322  14.9361  15.1983  15.4945  16.6428  28.2599  30.6380
    31.8708

     occupation numbers 
     1.0000   1.0000   1.0348   0.7612   0.0205  -0.0000  -0.0000  -0.0000
    -0.0000

          k = 0.0625 0.0625 0.9375 (   131 PWs)   bands (ev):

    10.6073  11.2916  15.3103  15.3494  15.6322  18.0527  25.9391  30.0092
    31.1961

     occupation numbers 
     1.0000   1.0000   0.4288   0.3125  -0.0352  -0.0000  -0.0000  -0.0000
    -0.0000

          k = 0.0625 0.1875 0.1875 (   140 PWs)   bands (ev):

     6.7852  13.0500  13.5500  13.5564  14.3989  14.6530  36.3891  39.1679
    42.8832

     occupation numbers 
     1.0000   1.0000   1.0000   1.0000   1.0000   1.0024  -0.0000  -0.0000
    -0.0000

          k = 0.0625 0.1875 0.3125 (   138 PWs)   bands (ev):

     7.5823  12.8178  13.6113  13.7454  14.2814  14.8367  34.3987  37.2088
    41.9619

     occupation numbers 
     1.0000   1.0000   1.0000   1.0000   1.0000   1.0205  -0.0000  -0.0000
    -0.0000

          k = 0.0625 0.1875 0.4375 (   138 PWs)   bands (ev):

     8.6713  12.4899  13.5074  14.0219  14.4222  15.1126  32.5720  35.3450
    39.4342

     occupation numbers 
     1.0000   1.0000   1.0000   1.0000   1.0000   0.9381  -0.0000  -0.0000
    -0.0000

          k = 0.0625 0.1875 0.5625 (   138 PWs)   bands (ev):

     9.8329  12.1351  13.3658  14.3671  14.8446  15.5017  30.9494  33.6153
    35.8079

     occupation numbers 
     1.0000   1.0000   1.0000   1.0000   1.0218   0.0131  -0.0000  -0.0000
    -0.0000

          k = 0.0625 0.1875 0.6875 (   135 PWs)   bands (ev):

    10.6281  11.8124  13.5765  14.7464  15.2362  16.2800  29.5734  31.7072
    32.5544

     occupation numbers 
     1.0000   1.0000   1.0000   1.0083   0.6561  -0.0000  -0.0000  -0.0000
    -0.0000

          k = 0.0625 0.1875 0.8125 (   131 PWs)   bands (ev):

    10.8468  11.5706  14.1050  15.0469  15.4722  17.6741  28.2748  28.8397
    31.2557

     occupation numbers 
     1.0000   1.0000   1.0000   1.0085   0.0475  -0.0000  -0.0000  -0.0000
    -0.0000

          k = 0.0625 0.1875 0.9375 (   129 PWs)   bands (ev):

    10.8373  11.4425  14.4936  15.1592  15.6179  19.1883  26.0415  28.0868
    30.6622

     occupation numbers 
     1.0000   1.0000   1.0001   0.8537  -0.0354  -0.0000  -0.0000  -0.0000
    -0.0000

          k = 0.0625 0.3125 0.3125 (   140 PWs)   bands (ev):

     8.3258  12.7273  13.5158  13.8278  14.2358  15.1253  32.2983  35.1569
    43.2293

     occupation numbers 
     1.0000   1.0000   1.0000   1.0000   1.0000   0.9180  -0.0000  -0.0000
    -0.0000

          k = 0.0625 0.3125 0.4375 (   140 PWs)   bands (ev):

     9.3257  12.5389  13.3183  13.9798  14.3690  15.5606  30.4551  33.3476
    40.4216

     occupation numbers 
     1.0000   1.0000   1.0000   1.0000   1.0000  -0.0255  -0.0000  -0.0000
    -0.0000

          k = 0.0625 0.3125 0.5625 (   138 PWs)   bands (ev):

    10.3760  12.2923  13.0401  14.2474  14.7348  16.1863  28.8677  31.7999
    36.4746

     occupation numbers 
     1.0000   1.0000   1.0000   1.0000   1.0072  -0.0000  -0.0000  -0.0000
    -0.0000

          k = 0.0625 0.3125 0.6875 (   133 PWs)   bands (ev):

    11.1005  12.0394  12.9846  14.5704  15.1196  17.2531  27.5551  30.5248
    32.6754

     occupation numbers 
     1.0000   1.0000   1.0000   1.0006   0.9272  -0.0000  -0.0000  -0.0000
    -0.0000

          k = 0.0625 0.3125 0.8125 (   130 PWs)   bands (ev):

    11.2676  11.8435  13.2914  14.7820  15.4222  18.9055  26.5694  28.9277
    29.9268

     occupation numbers 
     1.0000   1.0000   1.0000   1.0123   0.1323  -0.0000  -0.0000  -0.0000
    -0.0000

          k = 0.0625 0.3125 0.9375 (   131 PWs)   bands (ev):

    11.2183  11.7441  13.5979  14.8273  15.6124  20.6945  25.8515  26.5878
    29.3299

     occupation numbers 
     1.0000   1.0000   1.0000   1.0190  -0.0353  -0.0000  -0.0000  -0.0000
    -0.0000

          k = 0.0625 0.4375 0.4375 (   137 PWs)   bands (ev):

    10.1637  12.5547  13.1188  13.9362  14.4468  16.1656  28.6100  31.6003
    41.1338

     occupation numbers 
     1.0000   1.0000   1.0000   1.0000   1.0001  -0.0000  -0.0000  -0.0000
    -0.0000

          k = 0.0625 0.4375 0.5625 (   137 PWs)   bands (ev):

    10.9899  12.4955  12.7968  14.0851  14.7225  17.0135  27.0302  30.1660
    37.4189

     occupation numbers 
     1.0000   1.0000   1.0000   1.0000   1.0062  -0.0000  -0.0000  -0.0000
    -0.0000

          k = 0.0625 0.4375 0.6875 (   133 PWs)   bands (ev):

    11.5820  12.2943  12.5936  14.3409  15.0767  18.3385  25.7246  29.0676
    33.5355

     occupation numbers 
     1.0000   1.0000   1.0000   1.0000   0.9832  -0.0000  -0.0000  -0.0000
    -0.0000

          k = 0.0625 0.4375 0.8125 (   134 PWs)   bands (ev):

    11.6822  12.1941  12.6583  14.4977  15.4017  20.2284  24.7449  28.2782
    30.0313

     occupation numbers 
     1.0000   1.0000   1.0000   1.0002   0.1768  -0.0000  -0.0000  -0.0000
    -0.0000

          k = 0.0625 0.4375 0.9375 (   134 PWs)   bands (ev):

    11.5559  12.1927  12.8234  14.5271  15.6107  22.3433  24.1635  26.8834
    28.1802

     occupation numbers 
     1.0000   1.0000   1.0000   1.0003  -0.0352  -0.0000  -0.0000  -0.0000
    -0.0000

          k = 0.0625 0.5625 0.5625 (   135 PWs)   bands (ev):

    11.4809  12.4758  12.7209  14.0910  14.8611  18.1022  25.4357  28.8675
    38.0321

     occupation numbers 
     1.0000   1.0000   1.0000   1.0000   1.0246  -0.0000  -0.0000  -0.0000
    -0.0000

          k = 0.0625 0.5625 0.6875 (   132 PWs)   bands (ev):

    11.8102  12.1062  12.8156  14.2851  15.1160  19.6344  24.0961  27.9338
    34.6538

     occupation numbers 
     1.0000   1.0000   1.0000   1.0000   0.9328  -0.0000  -0.0000  -0.0000
    -0.0000

          k = 0.0625 0.5625 0.8125 (   132 PWs)   bands (ev):

    11.7575  12.0464  12.8391  14.4557  15.4043  21.6172  23.1292  27.3301
    31.1074

     occupation numbers 
     1.0000   1.0000   1.0000   1.0001   0.1708  -0.0000  -0.0000  -0.0000
    -0.0000

          k = 0.0625 0.6875 0.6875 (   133 PWs)   bands (ev):

    11.6824  11.8911  13.1703  14.4661  15.2417  21.1953  22.7661  27.1663
    34.8663

     occupation numbers 
     1.0000   1.0000   1.0000   1.0001   0.6396  -0.0000  -0.0000  -0.0000
    -0.0000

          k = 0.0625 0.6875 0.8125 (   133 PWs)   bands (ev):

    11.4040  11.7854  13.4554  14.6897  15.4362  21.3197  23.5811  26.7161
    32.3000

     occupation numbers 
     1.0000   1.0000   1.0000   1.0040   0.1052  -0.0000  -0.0000  -0.0000
    -0.0000

          k = 0.0625 0.8125 0.8125 (   131 PWs)   bands (ev):

    11.0468  11.5628  14.0914  14.9627  15.5124  20.0406  25.4558  26.4955
    32.4991

     occupation numbers 
     1.0000   1.0000   1.0000   1.0353   0.0033  -0.0000  -0.0000  -0.0000
    -0.0000

          k = 0.1875 0.1875 0.1875 (   138 PWs)   bands (ev):

     7.1844  12.9977  13.5678  13.5678  14.5565  14.5565  34.0896  40.6035
    42.9618

     occupation numbers 
     1.0000   1.0000   1.0000   1.0000   1.0005   1.0005  -0.0000  -0.0000
    -0.0000

          k = 0.1875 0.1875 0.3125 (   141 PWs)   bands (ev):

     7.9463  12.8331  13.5845  13.6386  14.5044  14.8055  31.9878  39.5994
    40.3950

     occupation numbers 
     1.0000   1.0000   1.0000   1.0000   1.0002   1.0156  -0.0000  -0.0000
    -0.0000

          k = 0.1875 0.1875 0.4375 (   140 PWs)   bands (ev):

     8.9768  12.5673  13.4415  13.8015  14.7873  15.0782  30.1403  38.0086
    38.1941

     occupation numbers 
     1.0000   1.0000   1.0000   1.0000   1.0130   0.9815  -0.0000  -0.0000
    -0.0000

          k = 0.1875 0.1875 0.5625 (   136 PWs)   bands (ev):

    10.0650  12.2490  13.2648  14.0572  15.3194  15.4963  28.5455  35.6611
    35.9419

     occupation numbers 
     1.0000   1.0000   1.0000   1.0000   0.4010   0.0187  -0.0000  -0.0000
    -0.0000

          k = 0.1875 0.1875 0.6875 (   136 PWs)   bands (ev):

    10.8239  11.9299  13.3721  14.3787  15.4837  16.6689  27.2200  32.1674
    34.2788

     occupation numbers 
     1.0000   1.0000   1.0000   1.0000   0.0328  -0.0000  -0.0000  -0.0000
    -0.0000

          k = 0.1875 0.1875 0.8125 (   133 PWs)   bands (ev):

    11.0536  11.6846  13.7763  14.7123  15.5423  18.3298  26.2107  28.8322
    33.1070

     occupation numbers 
     1.0000   1.0000   1.0000   1.0055  -0.0173  -0.0000  -0.0000  -0.0000
    -0.0000

          k = 0.1875 0.3125 0.3125 (   141 PWs)   bands (ev):

     8.6293  12.8206  13.5168  13.6059  14.5849  15.0279  29.8548  38.0246
    41.7480

     occupation numbers 
     1.0000   1.0000   1.0000   1.0000   1.0008   1.0196  -0.0000  -0.0000
    -0.0000

          k = 0.1875 0.3125 0.4375 (   140 PWs)   bands (ev):

     9.5247  12.7222  13.3432  13.6763  14.7951  15.4317  28.0170  36.3136
    40.0637

     occupation numbers 
     1.0000   1.0000   1.0000   1.0000   1.0141   0.1135  -0.0000  -0.0000
    -0.0000

          k = 0.1875 0.3125 0.5625 (   139 PWs)   bands (ev):

    10.4383  12.4965  13.1238  13.8794  15.1834  16.1109  26.4611  34.7275
    36.7576

     occupation numbers 
     1.0000   1.0000   1.0000   1.0000   0.7986  -0.0001  -0.0000  -0.0000
    -0.0000

          k = 0.1875 0.3125 0.6875 (   136 PWs)   bands (ev):

    11.1115  12.1663  13.0913  14.1727  15.4121  17.4172  25.1906  32.6212
    33.8803

     occupation numbers 
     1.0000   1.0000   1.0000   1.0000   0.1535  -0.0000  -0.0000  -0.0000
    -0.0000

          k = 0.1875 0.3125 0.8125 (   132 PWs)   bands (ev):

    11.3913  11.8919  13.2688  14.4793  15.4652  19.2984  24.2340  29.3469
    32.7973

     occupation numbers 
     1.0000   1.0000   1.0000   1.0001   0.0574  -0.0000  -0.0000  -0.0000
    -0.0000

          k = 0.1875 0.4375 0.4375 (   137 PWs)   bands (ev):

    10.1882  12.8843  13.2047  13.6288  14.8175  16.0079  26.2194  34.6295
    40.6602

     occupation numbers 
     1.0000   1.0000   1.0000   1.0000   1.0174  -0.0006  -0.0000  -0.0000
    -0.0000

          k = 0.1875 0.4375 0.5625 (   135 PWs)   bands (ev):

    10.8222  12.7639  13.0576  13.7684  15.0616  16.8855  24.7368  33.2043
    37.6627

     occupation numbers 
     1.0000   1.0000   1.0000   1.0000   0.9972  -0.0000  -0.0000  -0.0000
    -0.0000

          k = 0.1875 0.4375 0.6875 (   135 PWs)   bands (ev):

    11.3500  12.3612  12.9964  14.0273  15.2940  18.3276  23.5691  32.0492
    33.9358

     occupation numbers 
     1.0000   1.0000   1.0000   1.0000   0.4794  -0.0000  -0.0000  -0.0000
    -0.0000

          k = 0.1875 0.4375 0.8125 (   135 PWs)   bands (ev):

    11.7398  12.0197  12.9122  14.2900  15.3880  20.2463  22.8049  30.1346
    31.5763

     occupation numbers 
     1.0000   1.0000   1.0000   1.0000   0.2095  -0.0000  -0.0000  -0.0000
    -0.0000

          k = 0.1875 0.5625 0.5625 (   131 PWs)   bands (ev):

    11.1589  12.6382  13.1551  13.8012  15.1298  17.9246  23.3766  31.8742
    38.4179

     occupation numbers 
     1.0000   1.0000   1.0000   1.0000   0.9104  -0.0000  -0.0000  -0.0000
    -0.0000

          k = 0.1875 0.5625 0.6875 (   129 PWs)   bands (ev):

    11.4743  12.2958  13.1025  14.0142  15.2946  19.2903  22.4822  30.8621
    35.0370

     occupation numbers 
     1.0000   1.0000   1.0000   1.0000   0.4774  -0.0000  -0.0000  -0.0000
    -0.0000

          k = 0.1875 0.6875 0.6875 (   132 PWs)   bands (ev):

    11.4871  12.0746  13.1954  14.1883  15.3988  19.7106  22.5884  29.9433
    35.3727

     occupation numbers 
     1.0000   1.0000   1.0000   1.0000   0.1835  -0.0000  -0.0000  -0.0000
    -0.0000

          k = 0.3125 0.3125 0.3125 (   144 PWs)   bands (ev):

     9.1777  12.9970  13.4810  13.4810  14.9442  14.9442  27.7275  39.4053
    42.0659

     occupation numbers 
     1.0000   1.0000   1.0000   1.0000   1.0353   1.0353  -0.0000  -0.0000
    -0.0000

          k = 0.3125 0.3125 0.4375 (   141 PWs)   bands (ev):

     9.8551  13.1172  13.3540  13.4863  15.2034  15.2450  25.9368  38.4692
    39.7586

     occupation numbers 
     1.0000   1.0000   1.0000   1.0000   0.7478   0.6299  -0.0000  -0.0000
    -0.0000

          k = 0.3125 0.3125 0.5625 (   140 PWs)   bands (ev):

    10.5225  12.8610  13.2887  13.6232  15.4370  16.1479  24.4682  36.5713
    37.8450

     occupation numbers 
     1.0000   1.0000   1.0000   1.0000   0.1037  -0.0000  -0.0000  -0.0000
    -0.0000

          k = 0.3125 0.3125 0.6875 (   134 PWs)   bands (ev):

    11.0838  12.4356  13.2427  13.8727  15.4880  17.7343  23.3257  33.3242
    36.3732

     occupation numbers 
     1.0000   1.0000   1.0000   1.0000   0.0278  -0.0000  -0.0000  -0.0000
    -0.0000

          k = 0.3125 0.4375 0.4375 (   140 PWs)   bands (ev):

    10.2349  13.2791  13.3996  13.5901  15.1559  15.6915  24.2580  37.5277
    40.3444

     occupation numbers 
     1.0000   1.0000   1.0000   1.0000   0.8606  -0.0283  -0.0000  -0.0000
    -0.0000

          k = 0.3125 0.4375 0.5625 (   136 PWs)   bands (ev):

    10.6313  13.0320  13.4868  13.6404  15.3502  16.5818  22.9945  36.2418
    38.3356

     occupation numbers 
     1.0000   1.0000   1.0000   1.0000   0.3102  -0.0000  -0.0000  -0.0000
    -0.0000

          k = 0.3125 0.4375 0.6875 (   134 PWs)   bands (ev):

    11.0485  12.6516  13.4026  13.7179  15.4094  18.0358  22.2385  34.1265
    35.9252

     occupation numbers 
     1.0000   1.0000   1.0000   1.0000   0.1594  -0.0000  -0.0000  -0.0000
    -0.0000

          k = 0.3125 0.5625 0.5625 (   131 PWs)   bands (ev):

    10.8005  12.9309  13.5205  13.7076  15.3609  17.3009  22.1505  35.1477
    39.1819

     occupation numbers 
     1.0000   1.0000   1.0000   1.0000   0.2803  -0.0000  -0.0000  -0.0000
    -0.0000

          k = 0.4375 0.4375 0.4375 (   135 PWs)   bands (ev):

    10.3330  13.2991  13.2991  14.4427  15.3828  15.3828  22.8438  38.4260
    41.5581

     occupation numbers 
     1.0000   1.0000   1.0000   1.0001   0.2225   0.2225  -0.0000  -0.0000
    -0.0000

          k = 0.4375 0.4375 0.5625 (   135 PWs)   bands (ev):

    10.5163  13.1822  13.3418  14.2982  15.4549  16.1781  22.0665  37.6872
    40.2831

     occupation numbers 
     1.0000   1.0000   1.0000   1.0000   0.0730  -0.0000  -0.0000  -0.0000
    -0.0000

     the Fermi energy is    15.2873 ev

!    total energy              =     -85.72249139 Ry
     Harris-Foulkes estimate   =     -85.72249139 Ry
     estimated scf accuracy    <          4.9E-09 Ry

     The total energy is the sum of the following terms:

     one-electron contribution =       0.28977701 Ry
     hartree contribution      =      14.35011473 Ry
     xc contribution           =     -29.60821734 Ry
     ewald contribution        =     -70.75404435 Ry
     smearing contrib. (-TS)   =      -0.00012144 Ry

     total magnetization       =     0.58 Bohr mag/cell
     absolute magnetization    =     0.65 Bohr mag/cell

     convergence has been achieved in   9 iterations

     Forces acting on atoms (Ry/au):

     atom    1 type  1   force =     0.00000000    0.00000000    0.00000000
     The non-local contrib.  to forces
     atom    1 type  1   force =     0.00000000    0.00000000    0.00000000
     The ionic contribution  to forces
     atom    1 type  1   force =     0.00000000    0.00000000    0.00000000
     The local contribution  to forces
     atom    1 type  1   force =    -0.00000000    0.00000000    0.00000000
     The core correction contribution to forces
     atom    1 type  1   force =    -0.00000000   -0.00000000    0.00000000
     The Hubbard contrib.    to forces
     atom    1 type  1   force =     0.00000000    0.00000000    0.00000000
     The SCF correction term to forces
     atom    1 type  1   force =    -0.00000000    0.00000000    0.00000000

     Total force =     0.000000     Total SCF correction =     0.000000


     entering subroutine stress ...

          total   stress  (Ry/bohr**3)                   (kbar)     P=  -22.57
  -0.00015342   0.00000000   0.00000000        -22.57      0.00      0.00
   0.00000000  -0.00015342  -0.00000000          0.00    -22.57     -0.00
   0.00000000  -0.00000000  -0.00015342          0.00     -0.00    -22.57

     kinetic stress (kbar)   9669.27      0.00      0.00
                                0.00   9669.27      0.00
                                0.00     -0.00   9669.27

     local   stress (kbar)  17753.29     -0.00      0.00
                               -0.00  17753.29     -0.00
                                0.00     -0.00  17753.29

     nonloc. stress (kbar)  25954.67      0.00     -0.00
                                0.00  25954.67      0.00
                               -0.00      0.00  25954.67

     hartree stress (kbar)  10344.19      0.00     -0.00
                                0.00  10344.19      0.00
                               -0.00      0.00  10344.19

     exc-cor stress (kbar)  21657.25      0.00      0.00
                                0.00  21657.25      0.00
                                0.00      0.00  21657.25

     corecor stress (kbar) -34398.62      0.00      0.00
                                0.00 -34398.62     -0.00
                                0.00     -0.00 -34398.62

     ewald   stress (kbar) -51002.63     -0.00     -0.00
                               -0.00 -51002.63      0.00
                               -0.00      0.00 -51002.63

     hubbard stress (kbar)      0.00      0.00      0.00
                                0.00      0.00      0.00
                                0.00      0.00      0.00

     london  stress (kbar)      0.00      0.00      0.00
                                0.00      0.00      0.00
                                0.00      0.00      0.00

     XDM     stress (kbar)      0.00      0.00      0.00
                                0.00      0.00      0.00
                                0.00      0.00      0.00

     dft-nl  stress (kbar)      0.00      0.00      0.00
                                0.00      0.00      0.00
                                0.00      0.00      0.00



     Writing output data file ni.save
 
     init_run     :      0.59s CPU      0.85s WALL (       1 calls)
     electrons    :      6.43s CPU      6.67s WALL (       1 calls)
     forces       :      0.06s CPU      0.06s WALL (       1 calls)
     stress       :      0.16s CPU      0.16s WALL (       1 calls)

     Called by init_run:
     wfcinit      :      0.15s CPU      0.21s WALL (       1 calls)
     potinit      :      0.01s CPU      0.05s WALL (       1 calls)

     Called by electrons:
     c_bands      :      5.22s CPU      5.43s WALL (       9 calls)
     sum_band     :      1.02s CPU      1.04s WALL (       9 calls)
     v_of_rho     :      0.04s CPU      0.04s WALL (      10 calls)
     v_h          :      0.01s CPU      0.01s WALL (      10 calls)
     v_xc         :      0.04s CPU      0.04s WALL (      12 calls)
     newd         :      0.12s CPU      0.13s WALL (      10 calls)
     mix_rho      :      0.02s CPU      0.02s WALL (       9 calls)

     Called by c_bands:
     init_us_2    :      0.12s CPU      0.11s WALL (    2520 calls)
     ccgdiagg     :      4.04s CPU      4.20s WALL (    1080 calls)
     wfcrot       :      1.25s CPU      1.35s WALL (    1080 calls)

     Called by sum_band:
     sum_band:bec :      0.00s CPU      0.01s WALL (    1080 calls)
     addusdens    :      0.26s CPU      0.26s WALL (       9 calls)

     Called by *cgdiagg:
     h_psi        :      4.34s CPU      4.47s WALL (   24475 calls)
     s_psi        :      0.31s CPU      0.31s WALL (   47870 calls)
     cdiaghg      :      0.05s CPU      0.10s WALL (    1080 calls)

     Called by h_psi:
     h_psi:vloc   :      3.69s CPU      3.79s WALL (   24475 calls)
     h_psi:vnl    :      0.51s CPU      0.53s WALL (   24475 calls)
     add_vuspsi   :      0.20s CPU      0.21s WALL (   24475 calls)

     General routines
     calbec       :      0.25s CPU      0.31s WALL (   49550 calls)
     fft          :      0.09s CPU      0.12s WALL (     170 calls)
     ffts         :      0.00s CPU      0.00s WALL (      38 calls)
     fftw         :      3.47s CPU      3.49s WALL (   75950 calls)
     interpolate  :      0.03s CPU      0.03s WALL (      38 calls)
     davcio       :      0.00s CPU      0.00s WALL (     120 calls)
 
     Parallel routines
     fft_scatter  :      0.33s CPU      0.33s WALL (   76158 calls)
 
     PWSCF        :     7.49s CPU         8.94s WALL

 
   This run was terminated on:  15:58:43   1Oct2015            

=------------------------------------------------------------------------------=
   JOB DONE.
=------------------------------------------------------------------------------=
