 vasp.4.6.35 3Apr08 complex 
 executed on             LinuxIFC date 2014.11.06  13:49:37
 running on   16 nodes
 distr:  one band on    8 nodes,    2 groups


--------------------------------------------------------------------------------------------------------


 INCAR:
 POTCAR:   PAW_PBE Fe_pv 06Sep2000                
 POTCAR:   PAW_PBE O 08Apr2002                    
 POTCAR:   PAW_PBE Fe_pv 06Sep2000                
   VRHFIN =Fe:  3pd7s1                                                          
   LEXCH  = PE                                                                  
   EATOM  =  2456.8974 eV,  180.5769 Ry                                         
                                                                                
   TITEL  = PAW_PBE Fe_pv 06Sep2000                                             
   LULTRA =        F    use ultrasoft PP ?                                      
   IUNSCR =        1    unscreen: 0-lin 1-nonlin 2-no                           
   RPACOR =    1.750    partial core radius                                     
   POMASS =   55.847; ZVAL   =   14.000    mass and valenz                      
   RCORE  =    2.200    outmost cutoff radius                                   
   RWIGS  =    2.200; RWIGS  =    1.164    wigner-seitz radius (au A)           
   ENMAX  =  293.238; ENMIN  =  219.929 eV                                      
   RCLOC  =    1.701    cutoff for local pot                                    
   LCOR   =        T    correct aug charges                                     
   LPAW   =        T    paw PP                                                  
   EAUG   =  578.342                                                            
   DEXC   =    -.002                                                            
   RMAX   =    2.693    core radius for proj-oper                               
   RAUG   =    1.300    factor for augmentation sphere                          
   RDEP   =    2.296    radius for radial grids                                 
   QCUT   =   -4.642; QGAM   =    9.285    optimization parameters              
                                                                                
   Description                                                                  
     l     E      TYP  RCUT    TYP  RCUT                                        
     1   .000     23  2.000                                                     
     1  -.400     23  2.000                                                     
     2   .000     23  2.200                                                     
     2   .000     23  2.200                                                     
     0   .000     23  2.000                                                     
     0  2.000     23  2.000                                                     
     3   .000      7   .000                                                     
  local pseudopotential read in
  partial core-charges read in
  atomic valenz-charges read in
  non local Contribution for L=           1  read in
    real space projection operators read in
  non local Contribution for L=           1  read in
    real space projection operators read in
  non local Contribution for L=           2  read in
    real space projection operators read in
  non local Contribution for L=           2  read in
    real space projection operators read in
  non local Contribution for L=           0  read in
    real space projection operators read in
  non local Contribution for L=           0  read in
    real space projection operators read in
    PAW grid and wavefunctions read in
 
   number of l-projection  operators is LMAX  =           6
   number of lm-projection operators is LMMAX =          18
 
 POTCAR:   PAW_PBE O 08Apr2002                    
   VRHFIN =O: s2p4                                                              
   LEXCH  = PE                                                                  
   EATOM  =   432.3788 eV,   31.7789 Ry                                         
                                                                                
   TITEL  = PAW_PBE O 08Apr2002                                                 
   LULTRA =        F    use ultrasoft PP ?                                      
   IUNSCR =        0    unscreen: 0-lin 1-nonlin 2-no                           
   RPACOR =     .000    partial core radius                                     
   POMASS =   16.000; ZVAL   =    6.000    mass and valenz                      
   RCORE  =    1.520    outmost cutoff radius                                   
   RWIGS  =    1.550; RWIGS  =     .820    wigner-seitz radius (au A)           
   ENMAX  =  400.000; ENMIN  =  300.000 eV                                      
   ICORE  =        2    local potential                                         
   LCOR   =        T    correct aug charges                                     
   LPAW   =        T    paw PP                                                  
   EAUG   =  605.392                                                            
   DEXC   =     .000                                                            
   RMAX   =    2.264    core radius for proj-oper                               
   RAUG   =    1.300    factor for augmentation sphere                          
   RDEP   =    1.550    radius for radial grids                                 
   QCUT   =   -5.520; QGAM   =   11.041    optimization parameters              
                                                                                
   Description                                                                  
     l     E      TYP  RCUT    TYP  RCUT                                        
     0   .000     23  1.200                                                     
     0  -.700     23  1.200                                                     
     1   .000     23  1.520                                                     
     1   .600     23  1.520                                                     
     2   .000      7  1.500                                                     
  local pseudopotential read in
  atomic valenz-charges read in
  non local Contribution for L=           0  read in
    real space projection operators read in
  non local Contribution for L=           0  read in
    real space projection operators read in
  non local Contribution for L=           1  read in
    real space projection operators read in
  non local Contribution for L=           1  read in
    real space projection operators read in
    PAW grid and wavefunctions read in
 
   number of l-projection  operators is LMAX  =           4
   number of lm-projection operators is LMMAX =           8
 
 PAW_PBE Fe_pv 06Sep2000                :
 energy of atom  1       EATOM=-2456.8974
 kinetic energy error for atom=    0.0060 (will be added to EATOM!!)
 PAW_PBE O 08Apr2002                    :
 energy of atom  2       EATOM= -432.3788
 kinetic energy error for atom=    0.0190 (will be added to EATOM!!)
 
 EXHCAR: internal setup
 exchange correlation table for  LEXCH =        8
   RHO(1)=    0.500       N(1)  =     2000
   RHO(2)=  100.500       N(2)  =     4000
 
 POSCAR: Fe3O4   [FCC,FCC,cF56] (STD_PRIM doi:10.
  positions in direct lattice
  No initial velocities read in
 


--------------------------------------------------------------------------------------------------------


 ion  position               nearest neighbor table
   1  0.125  0.125  0.625-   8 1.94   9 1.94   7 1.94  10 1.94
   2  0.875  0.875  0.375-  11 1.94  13 1.94  12 1.94  14 1.94
   3  0.500  0.500  0.500-  10 2.09  14 2.09   8 2.09  11 2.09  13 2.09   9 2.09
   4  0.000  0.500  0.000-   7 2.09  10 2.09  12 2.09  14 2.09  13 2.09   9 2.09
   5  0.500  0.000  0.000-   7 2.09  10 2.09  12 2.09  14 2.09   8 2.09  11 2.09
   6  0.500  0.500  0.000-   7 2.09  12 2.09   9 2.09  11 2.09   8 2.09  13 2.09
   7  0.256  0.256  0.233-   1 1.94   6 2.09   5 2.09   4 2.09
   8  0.733  0.256  0.756-   1 1.94   3 2.09   6 2.09   5 2.09
   9  0.256  0.733  0.756-   1 1.94   3 2.09   6 2.09   4 2.09
  10  0.256  0.256  0.756-   1 1.94   3 2.09   4 2.09   5 2.09
  11  0.267  0.744  0.244-   2 1.94   3 2.09   6 2.09   5 2.09
  12  0.744  0.744  0.767-   2 1.94   6 2.09   5 2.09   4 2.09
  13  0.744  0.267  0.244-   2 1.94   3 2.09   6 2.09   4 2.09
  14  0.744  0.744  0.244-   2 1.94   3 2.09   4 2.09   5 2.09
 
  LATTYP: Found a face centered cubic cell.
 ALAT       =     8.5637257765
  
  Lattice vectors:
  
 A1 = (   0.0000000000,   4.2818628883,   4.2818628883)
 A2 = (   4.2818628883,   0.0000000000,   4.2818628883)
 A3 = (   4.2818628883,   4.2818628883,   0.0000000000)
 Subroutine PRICEL returns:
 Original cell was already a primitive cell.
 

Analysis of symmetry for initial positions (statically):

 Routine SETGRP: Setting up the symmetry group for a 
 face centered cubic supercell.


 Subroutine GETGRP returns: Found 48 space group operations
 (whereof 12 operations were pure point group operations)
 out of a pool of 48 trial point group operations.


The static configuration has the point symmetry D_3d.
 The point group associated with its full space group is O_h .

Analysis of symmetry for dynamics (positions and initial velocities):

 Subroutine DYNSYM returns: Found 48 space group operations
 (whereof 12 operations were pure point group operations)
 out of a pool of 48 trial space group operations
 (whereof 12 operations were pure point group operations)
 and found also     1 'primitive' translations


The dynamic configuration has the point symmetry D_3d.
 The point group associated with its full space group is O_h .

Analysis of magnetic symmetry:

 Subroutine MAGSYM returns: Found 48 space group operations
 (whereof 12 operations were pure point group operations)
 out of a pool of 48 trial space group operations
 (whereof 12 operations were pure point group operations)
 and found also     1 'primitive' translations


The magnetic configuration has the point symmetry D_3d.
 The point group associated with its full space group is O_h .
 
 
 KPOINTS: KPOINTS File, automatically generated by

Automatic generation of k-mesh.
 
 Subroutine IBZKPT returns following result:
 ===========================================
 
 Found     35 irreducible k-points:
 
 Following reciprocal coordinates:
            Coordinates               Weight
  0.000000  0.000000  0.000000      1.000000
  0.111111  0.000000  0.000000      8.000000
  0.222222  0.000000  0.000000      8.000000
  0.333333  0.000000  0.000000      8.000000
  0.444444  0.000000  0.000000      8.000000
  0.111111  0.111111  0.000000      6.000000
  0.222222  0.111111  0.000000     24.000000
  0.333333  0.111111  0.000000     24.000000
  0.444444  0.111111  0.000000     24.000000
 -0.444444  0.111111  0.000000     24.000000
 -0.333333  0.111111  0.000000     24.000000
 -0.222222  0.111111  0.000000     24.000000
 -0.111111  0.111111  0.000000     12.000000
  0.222222  0.222222  0.000000      6.000000
  0.333333  0.222222  0.000000     24.000000
  0.444444  0.222222  0.000000     24.000000
 -0.444444  0.222222  0.000000     24.000000
 -0.333333  0.222222  0.000000     24.000000
 -0.222222  0.222222  0.000000     12.000000
  0.333333  0.333333  0.000000      6.000000
  0.444444  0.333333  0.000000     24.000000
 -0.444444  0.333333  0.000000     24.000000
 -0.333333  0.333333  0.000000     12.000000
  0.444444  0.444444  0.000000      6.000000
 -0.444444  0.444444  0.000000     12.000000
  0.333333  0.222222  0.111111     24.000000
  0.444444  0.222222  0.111111     48.000000
 -0.444444  0.222222  0.111111     48.000000
  0.444444  0.333333  0.111111     24.000000
 -0.444444  0.333333  0.111111     48.000000
 -0.333333  0.333333  0.111111     48.000000
 -0.222222  0.333333  0.111111     24.000000
 -0.444444  0.444444  0.111111     24.000000
 -0.333333  0.444444  0.111111     24.000000
 -0.333333  0.444444  0.222222     24.000000
 
 Following cartesian coordinates:
            Coordinates               Weight
  0.000000  0.000000  0.000000      1.000000
 -0.015891  0.015891  0.015891      8.000000
 -0.031781  0.031781  0.031781      8.000000
 -0.047672  0.047672  0.047672      8.000000
 -0.063562  0.063562  0.063562      8.000000
  0.000000  0.000000  0.031781      6.000000
 -0.015891  0.015891  0.047672     24.000000
 -0.031781  0.031781  0.063562     24.000000
 -0.047672  0.047672  0.079453     24.000000
  0.079453 -0.079453 -0.047672     24.000000
  0.063562 -0.063562 -0.031781     24.000000
  0.047672 -0.047672 -0.015891     24.000000
  0.031781 -0.031781  0.000000     12.000000
  0.000000  0.000000  0.063562      6.000000
 -0.015891  0.015891  0.079453     24.000000
 -0.031781  0.031781  0.095344     24.000000
  0.095344 -0.095344 -0.031781     24.000000
  0.079453 -0.079453 -0.015891     24.000000
  0.063562 -0.063562  0.000000     12.000000
  0.000000  0.000000  0.095344      6.000000
 -0.015891  0.015891  0.111234     24.000000
  0.111234 -0.111234 -0.015891     24.000000
  0.095344 -0.095344  0.000000     12.000000
  0.000000  0.000000  0.127125      6.000000
  0.127125 -0.127125  0.000000     12.000000
  0.000000  0.031781  0.063562     24.000000
 -0.015891  0.047672  0.079453     48.000000
  0.111234 -0.079453 -0.047672     48.000000
  0.000000  0.031781  0.095344     24.000000
  0.127125 -0.095344 -0.031781     48.000000
  0.111234 -0.079453 -0.015891     48.000000
  0.095344 -0.063562 -0.000000     24.000000
  0.143015 -0.111234 -0.015891     24.000000
  0.127125 -0.095344  0.000000     24.000000
  0.143015 -0.079453 -0.015891     24.000000
 
 TETIRR: Found    115 inequivalent tetrahedra from     4374


--------------------------------------------------------------------------------------------------------




 Dimension of arrays:
   k-Points           NKPTS =     35   number of bands    NBANDS=    108
   number of dos      NEDOS =   5000   number of ions     NIONS =     14
   non local maximal  LDIM  =      6   non local SUM 2l+1 LMDIM =     18
   total plane-waves  NPLWV = 110592
   max r-space proj   IRMAX =      1   max aug-charges    IRDMAX=   6380
   dimension x,y,z NGX =    48 NGY =   48 NGZ =   48
   dimension x,y,z NGXF=    64 NGYF=   64 NGZF=   64
   support grid    NGXF=    64 NGYF=   64 NGZF=   64
   ions per type =               6   8
 NGX,Y,Z   is equivalent  to a cutoff of  13.18, 13.18, 13.18 a.u.
 NGXF,Y,Z  is equivalent  to a cutoff of  17.57, 17.57, 17.57 a.u.


 I would recommend the setting:
   dimension x,y,z NGX =    47 NGY =   47 NGZ =   47
 SYSTEM =  Fe3O4_ICSD_50567                        
 POSCAR =  Fe3O4   [FCC,FCC,cF56] (STD_PRIM doi:10.

 Startparameter for this run:
   NWRITE =      2    write-flag & timer
   PREC   = high      medium, high low
   ISTART =      0    job   : 0-new  1-cont  2-samecut
   ICHARG =      2    charge: 1-file 2-atom 10-const
   ISPIN  =      2    spin polarized calculation?
   LNONCOLLINEAR =      F non collinear calculations
   LSORBIT =      F    spin-orbit coupling
   INIWAV =      1    electr: 0-lowe 1-rand  2-diag
   LASPH  =      F    aspherical Exc in radial PAW
   METAGGA=      F    non-selfconsistent MetaGGA calc.

 Electronic Relaxation 1
   ENCUT  =  560.0 eV  41.16 Ry    6.42 a.u.  11.68 11.68 11.68*2*pi/ulx,y,z
   ENINI  =  560.0     initial cutoff
   ENAUG  =  605.4 eV  augmentation charge cutoff
   NELM   =    120;   NELMIN=  2; NELMDL=  0     # of ELM steps 
   EDIFF  = 0.1E-03   stopping-criterion for ELM
   LREAL  =      F    real-space projection
   LCOMPAT=      F    compatible to vasp.4.4
   LREAL_COMPAT= F    compatible to vasp.4.5.1-3
   GGA_COMPAT  = T    GGA compatible to vasp.4.4-vasp.4.6
   LMAXPAW     = -100 max onsite density
   LMAXMIX     =    4 max onsite mixed and CHGCAR
   VOSKOWN=      0    Vosko Wilk Nusair interpolation
   ROPT   =    0.00000   0.00000
 Ionic relaxation
   EDIFFG = 0.1E-02   stopping-criterion for IOM
   NSW    =      0    number of steps for IOM
   NBLOCK =      1;   KBLOCK =      1    inner block; outer block 
   IBRION =     -1    ionic relax: 0-MD 1-quasi-New 2-CG
   NFREE  =      1    steps in history (QN), initial steepest desc. (CG)
   ISIF   =      2    stress and relaxation
   IWAVPR =     10    prediction:  0-non 1-charg 2-wave 3-comb
   ISYM   =      2    0-nonsym 1-usesym 2-fastsym
   LCORR  =      T    Harris-Foulkes like correction to forces

   POTIM  =   0.50    time-step for ionic-motion
   TEIN   =    0.0    initial temperature
   TEBEG  =    0.0;   TEEND  =   0.0 temperature during run
   SMASS  =  -3.00    Nose mass-parameter (am)
   estimated Nose-frequenzy (Omega)   =  0.10E-29 period in steps =****** mass=  -0.838E-27a.u.
   NPACO  =    256;   APACO  = 16.0  distance and # of slots for P.C.
   PSTRESS=    0.0 pullay stress

  Mass of Ions in am
   POMASS =  55.85 16.00
  Ionic Valenz
   ZVAL   =  14.00  6.00
  Atomic Wigner-Seitz radii
   RWIGS  =  -1.00 -1.00
   NELECT =     132.0000    total number of electrons
   NUPDOWN=      -1.0000    fix difference up-down

 DOS related values:
   EMIN   = -30.00;   EMAX   = 45.00  energy-range for DOS
   ISMEAR =    -5;   SIGMA  =   0.05  broadening in eV -4-tet -1-fermi 0-gaus

 Electronic relaxation 2 (details)
   IALGO  =     38    algorithm
   LDIAG  =      T    sub-space diagonalisation
   IMIX   =      4    mixing-type and parameters
     AMIX     =   0.40;   BMIX     =  1.00
     AMIX_MAG =   1.60;   BMIX_MAG =  1.00
     AMIN     =   0.10
     WC   =   100.;   INIMIX=   1;  MIXPRE=   1

 Intra band minimization:
   WEIMIN = 0.0000     energy-eigenvalue tresh-hold
   EBREAK =  0.23E-06  absolut break condition
   DEPER  =   0.30     relativ break condition  

   TIME   =   0.10     timestep for ELM

  volume/ion in A,a.u.               =      11.22        75.68
  Fermi-wavevector in a.u.,eV,Ry     =   1.545100 32.481670  2.387335

 Second variation
   LSECVAR=     F    do a second variation
 
 Write flags
   LWAVE  =      F    write WAVECAR
   LCHARG =      T    write CHGCAR
   LVTOT  =      F    write LOCPOT, local potential
   LELF   =      F    write electronic localiz. function (ELF)
   LORBIT =     10    0 simple, 1 ext, 2 COOP (PROOUT)


 Dipole corrections
   IDIPOL =      0    1-x, 2-y, 3-z
   LDIPOL =      F    correct potential

 LDA+U is selected, type is set to LDAUTYPE =  2
   angular momentum for each species LDAUL =     2    0
   U (eV)           for each species LDAUU =   4.6  0.0
   J (eV)           for each species LDAUJ =   0.0  0.0


--------------------------------------------------------------------------------------------------------


 Static calculation
 charge density will be updated during run
 spin polarized calculation
 Variant of blocked Davidson
 Davidson routine will perform the subspace rotation
 performe sub-space diagonalisation
    after iterative eigenvector-optimisation
 modified Broyden-mixing scheme, WC =      100.0
 initial mixing is a Kerker type mixing with AMIX =  0.4000 and BMIX =      1.0000
 Hartree-type preconditioning will be used
 using additional bands           42
 reciprocal scheme for non local part
 use partial core corrections
 calculate Harris-corrections to forces 
   (improved forces if not selfconsistent)
 use gradient corrections 
 use of overlap-Matrix (Vanderbilt PP)
 Fermi weights with tetrahedron method with Bloechl corrections


--------------------------------------------------------------------------------------------------------


  energy-cutoff  :      560.00
  volume of cell :      157.01
      direct lattice vectors                 reciprocal lattice vectors
     0.000000000  4.281862888  4.281862888    -0.116771605  0.116771605  0.116771605
     4.281862888  0.000000000  4.281862888     0.116771605 -0.116771605  0.116771605
     4.281862888  4.281862888  0.000000000     0.116771605  0.116771605 -0.116771605

  length of vectors
     6.055468569  6.055468569  6.055468569     0.202254352  0.202254352  0.202254352


 
 k-points in units of 2pi/SCALE and weight: KPOINTS File, automatically generated by
   0.00000000  0.00000000  0.00000000       0.001
  -0.01589060  0.01589060  0.01589060       0.011
  -0.03178121  0.03178121  0.03178121       0.011
  -0.04767181  0.04767181  0.04767181       0.011
  -0.06356242  0.06356242  0.06356242       0.011
   0.00000000  0.00000000  0.03178121       0.008
  -0.01589060  0.01589060  0.04767181       0.033
  -0.03178121  0.03178121  0.06356242       0.033
  -0.04767181  0.04767181  0.07945302       0.033
   0.07945302 -0.07945302 -0.04767181       0.033
   0.06356242 -0.06356242 -0.03178121       0.033
   0.04767181 -0.04767181 -0.01589060       0.033
   0.03178121 -0.03178121  0.00000000       0.016
   0.00000000  0.00000000  0.06356242       0.008
  -0.01589060  0.01589060  0.07945302       0.033
  -0.03178121  0.03178121  0.09534363       0.033
   0.09534363 -0.09534363 -0.03178121       0.033
   0.07945302 -0.07945302 -0.01589060       0.033
   0.06356242 -0.06356242  0.00000000       0.016
   0.00000000  0.00000000  0.09534363       0.008
  -0.01589060  0.01589060  0.11123423       0.033
   0.11123423 -0.11123423 -0.01589060       0.033
   0.09534363 -0.09534363  0.00000000       0.016
   0.00000000  0.00000000  0.12712483       0.008
   0.12712483 -0.12712483  0.00000000       0.016
   0.00000000  0.03178121  0.06356242       0.033
  -0.01589060  0.04767181  0.07945302       0.066
   0.11123423 -0.07945302 -0.04767181       0.066
   0.00000000  0.03178121  0.09534363       0.033
   0.12712483 -0.09534363 -0.03178121       0.066
   0.11123423 -0.07945302 -0.01589060       0.066
   0.09534363 -0.06356242 -0.00000000       0.033
   0.14301544 -0.11123423 -0.01589060       0.033
   0.12712483 -0.09534363  0.00000000       0.033
   0.14301544 -0.07945302 -0.01589060       0.033
 
 k-points in reciprocal lattice and weights: KPOINTS File, automatically generated by
   0.00000000  0.00000000  0.00000000       0.001
   0.11111111  0.00000000  0.00000000       0.011
   0.22222222  0.00000000  0.00000000       0.011
   0.33333333  0.00000000  0.00000000       0.011
   0.44444444  0.00000000  0.00000000       0.011
   0.11111111  0.11111111  0.00000000       0.008
   0.22222222  0.11111111  0.00000000       0.033
   0.33333333  0.11111111  0.00000000       0.033
   0.44444444  0.11111111  0.00000000       0.033
  -0.44444444  0.11111111  0.00000000       0.033
  -0.33333333  0.11111111  0.00000000       0.033
  -0.22222222  0.11111111  0.00000000       0.033
  -0.11111111  0.11111111  0.00000000       0.016
   0.22222222  0.22222222  0.00000000       0.008
   0.33333333  0.22222222  0.00000000       0.033
   0.44444444  0.22222222  0.00000000       0.033
  -0.44444444  0.22222222  0.00000000       0.033
  -0.33333333  0.22222222  0.00000000       0.033
  -0.22222222  0.22222222  0.00000000       0.016
   0.33333333  0.33333333  0.00000000       0.008
   0.44444444  0.33333333  0.00000000       0.033
  -0.44444444  0.33333333  0.00000000       0.033
  -0.33333333  0.33333333  0.00000000       0.016
   0.44444444  0.44444444  0.00000000       0.008
  -0.44444444  0.44444444  0.00000000       0.016
   0.33333333  0.22222222  0.11111111       0.033
   0.44444444  0.22222222  0.11111111       0.066
  -0.44444444  0.22222222  0.11111111       0.066
   0.44444444  0.33333333  0.11111111       0.033
  -0.44444444  0.33333333  0.11111111       0.066
  -0.33333333  0.33333333  0.11111111       0.066
  -0.22222222  0.33333333  0.11111111       0.033
  -0.44444444  0.44444444  0.11111111       0.033
  -0.33333333  0.44444444  0.11111111       0.033
  -0.33333333  0.44444444  0.22222222       0.033
 
 position of ions in fractional coordinates (direct lattice) 
   0.12500000  0.12500000  0.62500000
   0.87500000  0.87500000  0.37500000
   0.50000000  0.50000000  0.50000000
   0.00000000  0.50000000  0.00000000
   0.50000000  0.00000000  0.00000000
   0.50000000  0.50000000  0.00000000
   0.25562392  0.25562392  0.23312824
   0.73312824  0.25562392  0.75562392
   0.25562392  0.73312824  0.75562392
   0.25562392  0.25562392  0.75562392
   0.26687176  0.74437608  0.24437608
   0.74437608  0.74437608  0.76687176
   0.74437608  0.26687176  0.24437608
   0.74437608  0.74437608  0.24437608
 
 position of ions in cartesian coordinates  (Angst):
   3.21139717  3.21139717  1.07046572
   5.35232861  5.35232861  7.49326005
   4.28186289  4.28186289  4.28186289
   2.14093144  0.00000000  2.14093144
   0.00000000  2.14093144  2.14093144
   2.14093144  2.14093144  4.28186289
   2.09276973  2.09276973  2.18909316
   4.33002460  6.37463262  4.23370117
   6.37463262  4.33002460  4.23370117
   4.33002460  4.33002460  2.18909316
   4.23370117  2.18909316  4.33002460
   6.47095605  6.47095605  6.37463262
   2.18909316  4.23370117  4.33002460
   4.23370117  4.23370117  6.37463262
 


--------------------------------------------------------------------------------------------------------


 k-point  1 :  0.00000.00000.0000  plane waves:   4693
 k-point  2 :  0.11110.00000.0000  plane waves:   4744
 k-point  3 :  0.22220.00000.0000  plane waves:   4759
 k-point  4 :  0.33330.00000.0000  plane waves:   4729
 k-point  5 :  0.44440.00000.0000  plane waves:   4720
 k-point  6 :  0.11110.11110.0000  plane waves:   4745
 k-point  7 :  0.22220.11110.0000  plane waves:   4741
 k-point  8 :  0.33330.11110.0000  plane waves:   4720
 k-point  9 :  0.44440.11110.0000  plane waves:   4717
 k-point 10 :  -.44440.11110.0000  plane waves:   4733
 k-point 11 :  -.33330.11110.0000  plane waves:   4724
 k-point 12 :  -.22220.11110.0000  plane waves:   4725
 k-point 13 :  -.11110.11110.0000  plane waves:   4743
 k-point 14 :  0.22220.22220.0000  plane waves:   4733
 k-point 15 :  0.33330.22220.0000  plane waves:   4721
 k-point 16 :  0.44440.22220.0000  plane waves:   4718
 k-point 17 :  -.44440.22220.0000  plane waves:   4727
 k-point 18 :  -.33330.22220.0000  plane waves:   4718
 k-point 19 :  -.22220.22220.0000  plane waves:   4734
 k-point 20 :  0.33330.33330.0000  plane waves:   4716
 k-point 21 :  0.44440.33330.0000  plane waves:   4730
 k-point 22 :  -.44440.33330.0000  plane waves:   4728
 k-point 23 :  -.33330.33330.0000  plane waves:   4728
 k-point 24 :  0.44440.44440.0000  plane waves:   4748
 k-point 25 :  -.44440.44440.0000  plane waves:   4734
 k-point 26 :  0.33330.22220.1111  plane waves:   4732
 k-point 27 :  0.44440.22220.1111  plane waves:   4722
 k-point 28 :  -.44440.22220.1111  plane waves:   4718
 k-point 29 :  0.44440.33330.1111  plane waves:   4729
 k-point 30 :  -.44440.33330.1111  plane waves:   4730
 k-point 31 :  -.33330.33330.1111  plane waves:   4725
 k-point 32 :  -.22220.33330.1111  plane waves:   4714
 k-point 33 :  -.44440.44440.1111  plane waves:   4734
 k-point 34 :  -.33330.44440.1111  plane waves:   4718
 k-point 35 :  -.33330.44440.2222  plane waves:   4708

 maximum and minimum number of plane-waves per node :    608   577

 maximum number of plane-waves:   4759
 maximal index in each direction: 
   IXMAX= 12   IYMAX= 11   IZMAX= 11
   IXMIN=-12   IYMIN=-12   IZMIN=-11

 WARNING: wrap around error must be expected set NGX to  50
 NGY is ok and might be reduce to  48
 NGZ is ok and might be reduce to  46

 parallel 3dFFT wavefunction:
    minimum data exchange during FFTs selected (reduces bandwidth)
 parallel 3dFFT charge:
    minimum data exchange during FFTs selected (reduces bandwidth)

 For storing wavefunctions  571.82 MBYTES are necessary
 For predicting wavefunctions   35.56 MBYTES are necessary
Broyden mixing: mesh for mixing (old mesh)
   NGX = 23   NGY = 23   NGZ = 23
  (NGX  = 64   NGY  = 64   NGZ  = 64)
 gives a total of  12167 points
 initial charge density was supplied:
 charge density of overlapping atoms calculated
 number of electron  132.0000000 magnetization   14.0000000
 keeping initial charge density in first step


--------------------------------------------------------------------------------------------------------


 Maximum index for augmentation-charges          426 (set IRDMAX)


--------------------------------------------------------------------------------------------------------


 First call to EWALD:  gamma=   0.329
 Maximum number of real-space cells 3x 3x 3
 Maximum number of reciprocal cells 3x 3x 3

    FEWALD:  VPU time    0.00: CPU time    0.00


----------------------------------------- Iteration    1(   1)  ---------------------------------------


    POTLOK:  VPU time    0.07: CPU time    0.11
    SETDIJ:  VPU time    0.03: CPU time    0.03
    EDDAV :  VPU time   40.22: CPU time   40.46
 BZINTS: Fermi energy: 24.773953;132.000000 electrons
         Band energy: 236.620881;  BLOECHL correction: -0.123092
    DOS   :  VPU time    0.00: CPU time   -0.00
    ------------------------------------------
      LOOP:  VPU time   40.47: CPU time   41.06

 eigenvalue-minimisations  : 15448
 total energy-change (2. order) : 0.2111016E+04  (-0.6675970E+04)
 number of electron  132.0000000 magnetization   14.0000000
 augmentation part   132.0000000 magnetization   14.0000000

 Free energy of the ion-electron system (eV)
  ---------------------------------------------------
  alpha Z        PSCENC =       863.50316679
  Ewald energy   TEWEN  =    -12002.33478764
  -1/2 Hartree   DENC   =     -5341.75022162
  -V(xc)+E(xc)   XCENC  =       644.89612454
  PAW double counting   =     12983.89940724   -13474.04525072
  entropy T*S    EENTRO =         0.00000000
  eigenvalues    EBANDS =       236.62088112
  atomic energy  EATOM  =     18200.22717729
  ---------------------------------------------------
  free energy    TOTEN  =      2111.01649702 eV

  energy without entropy =     2111.01649702  energy(sigma->0) =     2111.01649702


--------------------------------------------------------------------------------------------------------




----------------------------------------- Iteration    1(   2)  ---------------------------------------


    EDDAV :  VPU time   39.96: CPU time   40.11
 BZINTS: Fermi energy:  8.135516;132.000000 electrons
         Band energy:***********;  BLOECHL correction: -0.045336
    DOS   :  VPU time    0.00: CPU time   -0.00
    ------------------------------------------
      LOOP:  VPU time   40.15: CPU time   40.49

 eigenvalue-minimisations  : 15120
 total energy-change (2. order) :-0.1869214E+04  (-0.1699456E+04)
 number of electron  132.0000000 magnetization   14.0000000
 augmentation part   132.0000000 magnetization   14.0000000

 Free energy of the ion-electron system (eV)
  ---------------------------------------------------
  alpha Z        PSCENC =       863.50316679
  Ewald energy   TEWEN  =    -12002.33478764
  -1/2 Hartree   DENC   =     -5341.75022162
  -V(xc)+E(xc)   XCENC  =       644.89612454
  PAW double counting   =     12983.89940724   -13474.04525072
  entropy T*S    EENTRO =         0.00000000
  eigenvalues    EBANDS =     -1632.59287795
  atomic energy  EATOM  =     18200.22717729
  ---------------------------------------------------
  free energy    TOTEN  =       241.80273794 eV

  energy without entropy =      241.80273794  energy(sigma->0) =      241.80273794


--------------------------------------------------------------------------------------------------------




----------------------------------------- Iteration    1(   3)  ---------------------------------------


    EDDAV :  VPU time   38.35: CPU time   38.55
 BZINTS: Fermi energy:  5.474174;132.000000 electrons
         Band energy:***********;  BLOECHL correction: -0.006866
    DOS   :  VPU time    0.00: CPU time   -0.00
    ------------------------------------------
      LOOP:  VPU time   38.56: CPU time   39.33

 eigenvalue-minimisations  : 15644
 total energy-change (2. order) :-0.3083221E+03  (-0.2737132E+03)
 number of electron  132.0000000 magnetization   14.0000000
 augmentation part   132.0000000 magnetization   14.0000000

 Free energy of the ion-electron system (eV)
  ---------------------------------------------------
  alpha Z        PSCENC =       863.50316679
  Ewald energy   TEWEN  =    -12002.33478764
  -1/2 Hartree   DENC   =     -5341.75022162
  -V(xc)+E(xc)   XCENC  =       644.89612454
  PAW double counting   =     12983.89940724   -13474.04525072
  entropy T*S    EENTRO =         0.00000000
  eigenvalues    EBANDS =     -1940.91492897
  atomic energy  EATOM  =     18200.22717729
  ---------------------------------------------------
  free energy    TOTEN  =       -66.51931307 eV

  energy without entropy =      -66.51931307  energy(sigma->0) =      -66.51931307


--------------------------------------------------------------------------------------------------------




----------------------------------------- Iteration    1(   4)  ---------------------------------------


    EDDAV :  VPU time   54.61: CPU time   54.73
 BZINTS: Fermi energy:  5.295272;132.000000 electrons
         Band energy:***********;  BLOECHL correction: -0.006517
    DOS   :  VPU time    0.00: CPU time   -0.00
    ------------------------------------------
      LOOP:  VPU time   54.84: CPU time   55.49

 eigenvalue-minimisations  : 18016
 total energy-change (2. order) :-0.2274323E+02  (-0.2193259E+02)
 number of electron  132.0000000 magnetization   14.0000000
 augmentation part   132.0000000 magnetization   14.0000000

 Free energy of the ion-electron system (eV)
  ---------------------------------------------------
  alpha Z        PSCENC =       863.50316679
  Ewald energy   TEWEN  =    -12002.33478764
  -1/2 Hartree   DENC   =     -5341.75022162
  -V(xc)+E(xc)   XCENC  =       644.89612454
  PAW double counting   =     12983.89940724   -13474.04525072
  entropy T*S    EENTRO =         0.00000000
  eigenvalues    EBANDS =     -1963.65815517
  atomic energy  EATOM  =     18200.22717729
  ---------------------------------------------------
  free energy    TOTEN  =       -89.26253927 eV

  energy without entropy =      -89.26253927  energy(sigma->0) =      -89.26253927


--------------------------------------------------------------------------------------------------------




----------------------------------------- Iteration    1(   5)  ---------------------------------------


    EDDAV :  VPU time   50.74: CPU time   50.90
 BZINTS: Fermi energy:  5.289726;132.000000 electrons
         Band energy:***********;  BLOECHL correction: -0.006412
    DOS   :  VPU time   -0.00: CPU time   -0.00
    CHARGE:  VPU time    1.56: CPU time    1.56
    MIXING:  VPU time    0.00: CPU time    0.00
    ------------------------------------------
      LOOP:  VPU time   52.52: CPU time   53.27

 eigenvalue-minimisations  : 17744
 total energy-change (2. order) :-0.5527992E+00  (-0.5516845E+00)
 number of electron  132.0000649 magnetization   16.8531798
 augmentation part    53.1466311 magnetization   10.8256870

 Broyden mixing:
  rms(total) = 0.46794E+01    rms(broyden)= 0.46789E+01
  rms(prec ) = 0.78075E+01
  weight for this iteration     100.00

 Free energy of the ion-electron system (eV)
  ---------------------------------------------------
  alpha Z        PSCENC =       863.50316679
  Ewald energy   TEWEN  =    -12002.33478764
  -1/2 Hartree   DENC   =     -5341.75022162
  -V(xc)+E(xc)   XCENC  =       644.89612454
  PAW double counting   =     12983.89940724   -13474.04525072
  entropy T*S    EENTRO =         0.00000000
  eigenvalues    EBANDS =     -1964.21095436
  atomic energy  EATOM  =     18200.22717729
  ---------------------------------------------------
  free energy    TOTEN  =       -89.81533847 eV

  energy without entropy =      -89.81533847  energy(sigma->0) =      -89.81533847


--------------------------------------------------------------------------------------------------------




----------------------------------------- Iteration    1(   6)  ---------------------------------------


    POTLOK:  VPU time    0.12: CPU time    0.12
    SETDIJ:  VPU time    0.03: CPU time    0.03
    EDDAV :  VPU time   53.18: CPU time   53.31
 BZINTS: Fermi energy:  2.674554;132.000000 electrons
         Band energy:***********;  BLOECHL correction: -0.018630
    DOS   :  VPU time    0.00: CPU time   -0.00
    CHARGE:  VPU time    1.59: CPU time    1.59
    MIXING:  VPU time    0.00: CPU time    0.00
    ------------------------------------------
      LOOP:  VPU time   55.13: CPU time   55.97

 eigenvalue-minimisations  : 21352
 total energy-change (2. order) :-0.6837429E+01  (-0.1245686E+02)
 number of electron  132.0000758 magnetization   16.7753313
 augmentation part    58.5775829 magnetization   12.6542183

 Broyden mixing:
  rms(total) = 0.54579E+01    rms(broyden)= 0.54573E+01
  rms(prec ) = 0.10299E+02
  weight for this iteration     100.00

 eigenvalues of (default mixing * dielectric matrix)
  average eigenvalue GAMMA=   0.4900
  0.4900

 Free energy of the ion-electron system (eV)
  ---------------------------------------------------
  alpha Z        PSCENC =       863.50316679
  Ewald energy   TEWEN  =    -12002.33478764
  -1/2 Hartree   DENC   =     -5134.37272650
  -V(xc)+E(xc)   XCENC  =       646.87873947
  PAW double counting   =     12686.44036545   -13136.68026987
  entropy T*S    EENTRO =         0.00000000
  eigenvalues    EBANDS =     -2220.31443250
  atomic energy  EATOM  =     18200.22717729
  ---------------------------------------------------
  free energy    TOTEN  =       -96.65276751 eV

  energy without entropy =      -96.65276751  energy(sigma->0) =      -96.65276751


--------------------------------------------------------------------------------------------------------




----------------------------------------- Iteration    1(   7)  ---------------------------------------


    POTLOK:  VPU time    0.11: CPU time    0.11
    SETDIJ:  VPU time    0.03: CPU time    0.03
    EDDAV :  VPU time   56.72: CPU time   56.88
 BZINTS: Fermi energy:  3.509733;132.000000 electrons
         Band energy:***********;  BLOECHL correction: -0.005139
    DOS   :  VPU time    0.00: CPU time   -0.00
    CHARGE:  VPU time    1.58: CPU time    1.59
    MIXING:  VPU time    0.00: CPU time    0.00
    ------------------------------------------
      LOOP:  VPU time   58.67: CPU time   59.08

 eigenvalue-minimisations  : 19268
 total energy-change (2. order) :-0.4210762E+01  (-0.1151874E+02)
 number of electron  132.0000706 magnetization   16.1559314
 augmentation part    56.1527607 magnetization   12.0743776

 Broyden mixing:
  rms(total) = 0.50434E+01    rms(broyden)= 0.50428E+01
  rms(prec ) = 0.11672E+02
  weight for this iteration     100.00

 eigenvalues of (default mixing * dielectric matrix)
  average eigenvalue GAMMA=   0.4460
  0.6173  0.2747

 Free energy of the ion-electron system (eV)
  ---------------------------------------------------
  alpha Z        PSCENC =       863.50316679
  Ewald energy   TEWEN  =    -12002.33478764
  -1/2 Hartree   DENC   =     -5201.11959281
  -V(xc)+E(xc)   XCENC  =       648.15180547
  PAW double counting   =     12882.13146170   -13359.96167310
  entropy T*S    EENTRO =         0.00000000
  eigenvalues    EBANDS =     -2131.46108693
  atomic energy  EATOM  =     18200.22717729
  ---------------------------------------------------
  free energy    TOTEN  =      -100.86352923 eV

  energy without entropy =     -100.86352923  energy(sigma->0) =     -100.86352923


--------------------------------------------------------------------------------------------------------




----------------------------------------- Iteration    1(   8)  ---------------------------------------


    POTLOK:  VPU time    0.07: CPU time    0.07
    SETDIJ:  VPU time    0.02: CPU time    0.02
    EDDAV :  VPU time   48.23: CPU time   48.36
 BZINTS: Fermi energy:  3.818740;132.000000 electrons
         Band energy:***********;  BLOECHL correction: -0.005750
    DOS   :  VPU time    0.00: CPU time   -0.00
    CHARGE:  VPU time    1.51: CPU time    1.51
    MIXING:  VPU time    0.00: CPU time    0.00
    ------------------------------------------
      LOOP:  VPU time   50.04: CPU time   50.69

 eigenvalue-minimisations  : 20288
 total energy-change (2. order) : 0.1340584E+02  (-0.1523734E+01)
 number of electron  132.0000671 magnetization   18.6225857
 augmentation part    55.1916372 magnetization    9.4183140

 Broyden mixing:
  rms(total) = 0.31911E+01    rms(broyden)= 0.31905E+01
  rms(prec ) = 0.37838E+01
  weight for this iteration     100.00

 eigenvalues of (default mixing * dielectric matrix)
  average eigenvalue GAMMA=   0.3964
  0.7948  0.3016  0.0927

 Free energy of the ion-electron system (eV)
  ---------------------------------------------------
  alpha Z        PSCENC =       863.50316679
  Ewald energy   TEWEN  =    -12002.33478764
  -1/2 Hartree   DENC   =     -5227.46363883
  -V(xc)+E(xc)   XCENC  =       647.79115963
  PAW double counting   =     12957.30703594   -13450.57396543
  entropy T*S    EENTRO =         0.00000000
  eigenvalues    EBANDS =     -2075.91383931
  atomic energy  EATOM  =     18200.22717729
  ---------------------------------------------------
  free energy    TOTEN  =       -87.45769156 eV

  energy without entropy =      -87.45769156  energy(sigma->0) =      -87.45769156


--------------------------------------------------------------------------------------------------------




----------------------------------------- Iteration    1(   9)  ---------------------------------------


    POTLOK:  VPU time    0.06: CPU time    0.07
    SETDIJ:  VPU time    0.02: CPU time    0.02
    EDDAV :  VPU time   43.14: CPU time   43.23
 BZINTS: Fermi energy:  4.108187;132.000000 electrons
         Band energy:***********;  BLOECHL correction: -0.005901
    DOS   :  VPU time    0.00: CPU time   -0.00
    CHARGE:  VPU time    1.53: CPU time    1.53
    MIXING:  VPU time    0.00: CPU time    0.00
    ------------------------------------------
      LOOP:  VPU time   44.95: CPU time   45.42

 eigenvalue-minimisations  : 19344
 total energy-change (2. order) :-0.3331880E+01  (-0.2711941E+00)
 number of electron  132.0000672 magnetization   23.8293598
 augmentation part    55.2360474 magnetization   14.8312568

 Broyden mixing:
  rms(total) = 0.24934E+01    rms(broyden)= 0.24934E+01
  rms(prec ) = 0.31188E+01
  weight for this iteration     100.00

 eigenvalues of (default mixing * dielectric matrix)
  average eigenvalue GAMMA=   0.5606
  0.1792  0.7386  0.7386  0.5860

 Free energy of the ion-electron system (eV)
  ---------------------------------------------------
  alpha Z        PSCENC =       863.50316679
  Ewald energy   TEWEN  =    -12002.33478764
  -1/2 Hartree   DENC   =     -5220.98669502
  -V(xc)+E(xc)   XCENC  =       649.37589134
  PAW double counting   =     12959.20425023   -13453.14248485
  entropy T*S    EENTRO =         0.00000000
  eigenvalues    EBANDS =     -2086.63608947
  atomic energy  EATOM  =     18200.22717729
  ---------------------------------------------------
  free energy    TOTEN  =       -90.78957133 eV

  energy without entropy =      -90.78957133  energy(sigma->0) =      -90.78957133


--------------------------------------------------------------------------------------------------------




----------------------------------------- Iteration    1(  10)  ---------------------------------------


    POTLOK:  VPU time    0.07: CPU time    0.07
    SETDIJ:  VPU time    0.02: CPU time    0.02
    EDDAV :  VPU time   55.66: CPU time   55.82
 BZINTS: Fermi energy:  4.268873;132.000000 electrons
         Band energy:***********;  BLOECHL correction: -0.003633
    DOS   :  VPU time    0.00: CPU time   -0.00
    CHARGE:  VPU time    1.54: CPU time    1.54
    MIXING:  VPU time    0.00: CPU time    0.00
    ------------------------------------------
      LOOP:  VPU time   57.49: CPU time   58.09

 eigenvalue-minimisations  : 22652
 total energy-change (2. order) :-0.2147080E+01  (-0.1794884E+00)
 number of electron  132.0000682 magnetization   25.4714339
 augmentation part    55.4226530 magnetization   16.5761066

 Broyden mixing:
  rms(total) = 0.12165E+01    rms(broyden)= 0.12164E+01
  rms(prec ) = 0.14719E+01
  weight for this iteration     100.00

 eigenvalues of (default mixing * dielectric matrix)
  average eigenvalue GAMMA=   0.6615
  1.0578  1.0578  0.1791  0.6079  0.4046

 Free energy of the ion-electron system (eV)
  ---------------------------------------------------
  alpha Z        PSCENC =       863.50316679
  Ewald energy   TEWEN  =    -12002.33478764
  -1/2 Hartree   DENC   =     -5193.56841334
  -V(xc)+E(xc)   XCENC  =       652.36277762
  PAW double counting   =     12950.99880172   -13453.56823511
  entropy T*S    EENTRO =         0.00000000
  eigenvalues    EBANDS =     -2110.55713828
  atomic energy  EATOM  =     18200.22717729
  ---------------------------------------------------
  free energy    TOTEN  =       -92.93665095 eV

  energy without entropy =      -92.93665095  energy(sigma->0) =      -92.93665095


--------------------------------------------------------------------------------------------------------




----------------------------------------- Iteration    1(  11)  ---------------------------------------


    POTLOK:  VPU time    0.07: CPU time    0.07
    SETDIJ:  VPU time    0.02: CPU time    0.02
    EDDAV :  VPU time   55.84: CPU time   55.99
 BZINTS: Fermi energy:  4.139684;132.000000 electrons
         Band energy:***********;  BLOECHL correction: -0.000144
    DOS   :  VPU time   -0.00: CPU time   -0.00
    CHARGE:  VPU time    1.61: CPU time    1.61
    MIXING:  VPU time    0.00: CPU time    0.00
    ------------------------------------------
      LOOP:  VPU time   57.73: CPU time   58.35

 eigenvalue-minimisations  : 21636
 total energy-change (2. order) :-0.1123558E+01  (-0.1643628E+00)
 number of electron  132.0000687 magnetization   28.7865897
 augmentation part    55.5824198 magnetization   19.9133234

 Broyden mixing:
  rms(total) = 0.79304E+00    rms(broyden)= 0.79296E+00
  rms(prec ) = 0.10802E+01
  weight for this iteration     100.00

 eigenvalues of (default mixing * dielectric matrix)
  average eigenvalue GAMMA=   0.7439
  1.2415  1.2415  0.1791  0.7539  0.5238  0.5238

 Free energy of the ion-electron system (eV)
  ---------------------------------------------------
  alpha Z        PSCENC =       863.50316679
  Ewald energy   TEWEN  =    -12002.33478764
  -1/2 Hartree   DENC   =     -5171.62088593
  -V(xc)+E(xc)   XCENC  =       652.68305040
  PAW double counting   =     12930.11907598   -13434.75058425
  entropy T*S    EENTRO =         0.00000000
  eigenvalues    EBANDS =     -2131.88642133
  atomic energy  EATOM  =     18200.22717729
  ---------------------------------------------------
  free energy    TOTEN  =       -94.06020871 eV

  energy without entropy =      -94.06020871  energy(sigma->0) =      -94.06020871


--------------------------------------------------------------------------------------------------------




----------------------------------------- Iteration    1(  12)  ---------------------------------------


    POTLOK:  VPU time    0.07: CPU time    0.07
    SETDIJ:  VPU time    0.02: CPU time    0.02
    EDDAV :  VPU time   54.67: CPU time   54.82
 BZINTS: Fermi energy:  3.902913;132.000000 electrons
         Band energy:***********;  BLOECHL correction: -0.000000
    DOS   :  VPU time    0.00: CPU time   -0.00
    CHARGE:  VPU time    1.60: CPU time    1.60
    MIXING:  VPU time    0.00: CPU time    0.00
    ------------------------------------------
      LOOP:  VPU time   56.49: CPU time   57.36

 eigenvalue-minimisations  : 21404
 total energy-change (2. order) :-0.2462256E+00  (-0.6861856E-01)
 number of electron  132.0000690 magnetization   29.6028871
 augmentation part    55.7241134 magnetization   20.8071576

 Broyden mixing:
  rms(total) = 0.39629E+00    rms(broyden)= 0.39625E+00
  rms(prec ) = 0.67746E+00
  weight for this iteration     100.00

 eigenvalues of (default mixing * dielectric matrix)
  average eigenvalue GAMMA=   0.8609
  2.1810  0.9255  0.9255  0.1791  0.8319  0.4915  0.4915

 Free energy of the ion-electron system (eV)
  ---------------------------------------------------
  alpha Z        PSCENC =       863.50316679
  Ewald energy   TEWEN  =    -12002.33478764
  -1/2 Hartree   DENC   =     -5147.09659114
  -V(xc)+E(xc)   XCENC  =       655.09685338
  PAW double counting   =     12921.20064762   -13432.12144232
  entropy T*S    EENTRO =         0.00000000
  eigenvalues    EBANDS =     -2152.78145833
  atomic energy  EATOM  =     18200.22717729
  ---------------------------------------------------
  free energy    TOTEN  =       -94.30643435 eV

  energy without entropy =      -94.30643435  energy(sigma->0) =      -94.30643435


--------------------------------------------------------------------------------------------------------




----------------------------------------- Iteration    1(  13)  ---------------------------------------


    POTLOK:  VPU time    0.07: CPU time    0.07
    SETDIJ:  VPU time    0.02: CPU time    0.02
    EDDAV :  VPU time   51.38: CPU time   51.53
 BZINTS: Fermi energy:  4.134031;132.000000 electrons
         Band energy:***********;  BLOECHL correction:  0.000000
    DOS   :  VPU time    0.00: CPU time   -0.00
    CHARGE:  VPU time    1.58: CPU time    1.58
    MIXING:  VPU time    0.00: CPU time    0.00
    ------------------------------------------
      LOOP:  VPU time   53.20: CPU time   53.71

 eigenvalue-minimisations  : 20440
 total energy-change (2. order) : 0.9489343E-01  (-0.5203098E-01)
 number of electron  132.0000692 magnetization   28.8683872
 augmentation part    55.8078818 magnetization   20.1014858

 Broyden mixing:
  rms(total) = 0.47681E+00    rms(broyden)= 0.47680E+00
  rms(prec ) = 0.60874E+00
  weight for this iteration     100.00

 eigenvalues of (default mixing * dielectric matrix)
  average eigenvalue GAMMA=   0.9523
  2.4847  1.0928  1.0928  1.0927  0.1791  0.4609  0.6077  0.6077

 Free energy of the ion-electron system (eV)
  ---------------------------------------------------
  alpha Z        PSCENC =       863.50316679
  Ewald energy   TEWEN  =    -12002.33478764
  -1/2 Hartree   DENC   =     -5135.82884981
  -V(xc)+E(xc)   XCENC  =       655.36445233
  PAW double counting   =     12913.25917652   -13425.80095577
  entropy T*S    EENTRO =         0.00000000
  eigenvalues    EBANDS =     -2162.60092063
  atomic energy  EATOM  =     18200.22717729
  ---------------------------------------------------
  free energy    TOTEN  =       -94.21154092 eV

  energy without entropy =      -94.21154092  energy(sigma->0) =      -94.21154092


--------------------------------------------------------------------------------------------------------




----------------------------------------- Iteration    1(  14)  ---------------------------------------


    POTLOK:  VPU time    0.07: CPU time    0.07
    SETDIJ:  VPU time    0.02: CPU time    0.02
    EDDAV :  VPU time   49.37: CPU time   49.51
 BZINTS: Fermi energy:  4.147987;132.000000 electrons
         Band energy:***********;  BLOECHL correction:  0.000000
    DOS   :  VPU time    0.00: CPU time   -0.00
    CHARGE:  VPU time    1.54: CPU time    1.54
    MIXING:  VPU time    0.01: CPU time    0.01
    ------------------------------------------
      LOOP:  VPU time   51.15: CPU time   51.71

 eigenvalue-minimisations  : 21512
 total energy-change (2. order) :-0.1337943E+00  (-0.1260753E-01)
 number of electron  132.0000692 magnetization   28.2570332
 augmentation part    55.8031275 magnetization   19.4423478

 Broyden mixing:
  rms(total) = 0.26139E+00    rms(broyden)= 0.26137E+00
  rms(prec ) = 0.30297E+00
  weight for this iteration     100.00

 eigenvalues of (default mixing * dielectric matrix)
  average eigenvalue GAMMA=   0.9935
  2.7164  1.2426  1.2426  0.1791  0.8960  0.8960  0.4722  0.7052  0.5920

 Free energy of the ion-electron system (eV)
  ---------------------------------------------------
  alpha Z        PSCENC =       863.50316679
  Ewald energy   TEWEN  =    -12002.33478764
  -1/2 Hartree   DENC   =     -5135.77761671
  -V(xc)+E(xc)   XCENC  =       654.54139783
  PAW double counting   =     12916.10038439   -13431.07455608
  entropy T*S    EENTRO =         0.00000000
  eigenvalues    EBANDS =     -2159.53050107
  atomic energy  EATOM  =     18200.22717729
  ---------------------------------------------------
  free energy    TOTEN  =       -94.34533520 eV

  energy without entropy =      -94.34533520  energy(sigma->0) =      -94.34533520


--------------------------------------------------------------------------------------------------------




----------------------------------------- Iteration    1(  15)  ---------------------------------------


    POTLOK:  VPU time    0.06: CPU time    0.06
    SETDIJ:  VPU time    0.02: CPU time    0.02
    EDDAV :  VPU time   55.85: CPU time   56.05
 BZINTS: Fermi energy:  4.183436;132.000000 electrons
         Band energy:***********;  BLOECHL correction: -0.000000
    DOS   :  VPU time    0.00: CPU time   -0.00
    CHARGE:  VPU time    1.52: CPU time    1.52
    MIXING:  VPU time    0.00: CPU time    0.00
    ------------------------------------------
      LOOP:  VPU time   57.60: CPU time   58.52

 eigenvalue-minimisations  : 22056
 total energy-change (2. order) :-0.3859627E-01  (-0.5331713E-02)
 number of electron  132.0000691 magnetization   27.9604058
 augmentation part    55.7719121 magnetization   19.1281636

 Broyden mixing:
  rms(total) = 0.83844E-01    rms(broyden)= 0.83818E-01
  rms(prec ) = 0.97827E-01
  weight for this iteration     100.00

 eigenvalues of (default mixing * dielectric matrix)
  average eigenvalue GAMMA=   1.0309
  2.2074  2.2074  1.2880  0.1791  0.9915  0.9915  0.4688  0.6821  0.6821  0.6114

 Free energy of the ion-electron system (eV)
  ---------------------------------------------------
  alpha Z        PSCENC =       863.50316679
  Ewald energy   TEWEN  =    -12002.33478764
  -1/2 Hartree   DENC   =     -5139.78242370
  -V(xc)+E(xc)   XCENC  =       654.02942499
  PAW double counting   =     12923.53506599   -13438.07577002
  entropy T*S    EENTRO =         0.00000000
  eigenvalues    EBANDS =     -2155.48578517
  atomic energy  EATOM  =     18200.22717729
  ---------------------------------------------------
  free energy    TOTEN  =       -94.38393147 eV

  energy without entropy =      -94.38393147  energy(sigma->0) =      -94.38393147


--------------------------------------------------------------------------------------------------------




----------------------------------------- Iteration    1(  16)  ---------------------------------------


    POTLOK:  VPU time    0.06: CPU time    0.06
    SETDIJ:  VPU time    0.02: CPU time    0.02
    EDDAV :  VPU time   53.04: CPU time   53.16
 BZINTS: Fermi energy:  4.208827;132.000000 electrons
         Band energy:***********;  BLOECHL correction: -0.000000
    DOS   :  VPU time    0.00: CPU time   -0.00
    CHARGE:  VPU time    1.58: CPU time    1.58
    MIXING:  VPU time    0.00: CPU time    0.00
    ------------------------------------------
      LOOP:  VPU time   54.86: CPU time   55.23

 eigenvalue-minimisations  : 20144
 total energy-change (2. order) :-0.8251587E-02  (-0.1957091E-02)
 number of electron  132.0000691 magnetization   27.9049021
 augmentation part    55.7598531 magnetization   19.0600508

 Broyden mixing:
  rms(total) = 0.37917E-01    rms(broyden)= 0.37895E-01
  rms(prec ) = 0.82377E-01
  weight for this iteration     100.00

 eigenvalues of (default mixing * dielectric matrix)
  average eigenvalue GAMMA=   1.1131
  2.6091  2.6091  1.2697  1.2697  0.1791  0.9492  0.9492  0.4691  0.6716  0.6716
  0.5971

 Free energy of the ion-electron system (eV)
  ---------------------------------------------------
  alpha Z        PSCENC =       863.50316679
  Ewald energy   TEWEN  =    -12002.33478764
  -1/2 Hartree   DENC   =     -5142.72036319
  -V(xc)+E(xc)   XCENC  =       653.88289029
  PAW double counting   =     12929.82034089   -13444.43758155
  entropy T*S    EENTRO =         0.00000000
  eigenvalues    EBANDS =     -2152.33302593
  atomic energy  EATOM  =     18200.22717729
  ---------------------------------------------------
  free energy    TOTEN  =       -94.39218306 eV

  energy without entropy =      -94.39218306  energy(sigma->0) =      -94.39218306


--------------------------------------------------------------------------------------------------------




----------------------------------------- Iteration    1(  17)  ---------------------------------------


    POTLOK:  VPU time    0.07: CPU time    0.07
    SETDIJ:  VPU time    0.02: CPU time    0.02
    EDDAV :  VPU time   52.20: CPU time   52.35
 BZINTS: Fermi energy:  4.214431;132.000000 electrons
         Band energy:***********;  BLOECHL correction: -0.000000
    DOS   :  VPU time    0.00: CPU time   -0.00
    CHARGE:  VPU time    1.57: CPU time    1.57
    MIXING:  VPU time    0.01: CPU time    0.01
    ------------------------------------------
      LOOP:  VPU time   54.01: CPU time   54.77

 eigenvalue-minimisations  : 19536
 total energy-change (2. order) : 0.1500426E-02  (-0.7279699E-03)
 number of electron  132.0000690 magnetization   27.9385110
 augmentation part    55.7517511 magnetization   19.0912902

 Broyden mixing:
  rms(total) = 0.35821E-01    rms(broyden)= 0.35820E-01
  rms(prec ) = 0.58111E-01
  weight for this iteration     100.00

 eigenvalues of (default mixing * dielectric matrix)
  average eigenvalue GAMMA=   1.1099
  2.5533  2.5533  1.5571  1.5571  0.1791  0.9259  0.9259  0.4693  0.6830  0.6830
  0.6350  0.5965

 Free energy of the ion-electron system (eV)
  ---------------------------------------------------
  alpha Z        PSCENC =       863.50316679
  Ewald energy   TEWEN  =    -12002.33478764
  -1/2 Hartree   DENC   =     -5144.04139902
  -V(xc)+E(xc)   XCENC  =       653.87830276
  PAW double counting   =     12933.50793865   -13448.00512449
  entropy T*S    EENTRO =         0.00000000
  eigenvalues    EBANDS =     -2151.12595698
  atomic energy  EATOM  =     18200.22717729
  ---------------------------------------------------
  free energy    TOTEN  =       -94.39068263 eV

  energy without entropy =      -94.39068263  energy(sigma->0) =      -94.39068263


--------------------------------------------------------------------------------------------------------




----------------------------------------- Iteration    1(  18)  ---------------------------------------


    POTLOK:  VPU time    0.07: CPU time    0.07
    SETDIJ:  VPU time    0.02: CPU time    0.02
    EDDAV :  VPU time   45.51: CPU time   45.62
 BZINTS: Fermi energy:  4.208882;132.000000 electrons
         Band energy:***********;  BLOECHL correction: -0.000000
    DOS   :  VPU time    0.00: CPU time   -0.00
    CHARGE:  VPU time    1.53: CPU time    1.54
    MIXING:  VPU time    0.01: CPU time    0.01
    ------------------------------------------
      LOOP:  VPU time   47.27: CPU time   48.24

 eigenvalue-minimisations  : 17172
 total energy-change (2. order) :-0.1112496E-02  (-0.2325397E-03)
 number of electron  132.0000690 magnetization   27.9648115
 augmentation part    55.7512706 magnetization   19.1211096

 Broyden mixing:
  rms(total) = 0.23595E-01    rms(broyden)= 0.23593E-01
  rms(prec ) = 0.29347E-01
  weight for this iteration     100.00

 eigenvalues of (default mixing * dielectric matrix)
  average eigenvalue GAMMA=   1.0893
  2.5484  2.5484  1.6188  1.6188  0.1791  0.8815  0.8815  0.7607  0.7607  0.4689
  0.6310  0.6310  0.6323

 Free energy of the ion-electron system (eV)
  ---------------------------------------------------
  alpha Z        PSCENC =       863.50316679
  Ewald energy   TEWEN  =    -12002.33478764
  -1/2 Hartree   DENC   =     -5143.84051761
  -V(xc)+E(xc)   XCENC  =       653.90316210
  PAW double counting   =     12933.25549995   -13447.68027488
  entropy T*S    EENTRO =         0.00000000
  eigenvalues    EBANDS =     -2151.42522114
  atomic energy  EATOM  =     18200.22717729
  ---------------------------------------------------
  free energy    TOTEN  =       -94.39179513 eV

  energy without entropy =      -94.39179513  energy(sigma->0) =      -94.39179513


--------------------------------------------------------------------------------------------------------




----------------------------------------- Iteration    1(  19)  ---------------------------------------


    POTLOK:  VPU time    0.07: CPU time    0.07
    SETDIJ:  VPU time    0.02: CPU time    0.02
    EDDAV :  VPU time   32.81: CPU time   32.88
 BZINTS: Fermi energy:  4.204717;132.000000 electrons
         Band energy:***********;  BLOECHL correction: -0.000000
    DOS   :  VPU time    0.00: CPU time   -0.00
    CHARGE:  VPU time    1.52: CPU time    1.52
    MIXING:  VPU time    0.01: CPU time    0.01
    ------------------------------------------
      LOOP:  VPU time   34.57: CPU time   34.87

 eigenvalue-minimisations  : 13216
 total energy-change (2. order) :-0.3887043E-03  (-0.2325233E-04)
 number of electron  132.0000690 magnetization   27.9798750
 augmentation part    55.7524457 magnetization   19.1375372

 Broyden mixing:
  rms(total) = 0.12824E-01    rms(broyden)= 0.12822E-01
  rms(prec ) = 0.14556E-01
  weight for this iteration     100.00

 eigenvalues of (default mixing * dielectric matrix)
  average eigenvalue GAMMA=   1.0952
  2.5093  2.5093  1.7239  1.7239  0.1791  0.9372  0.9372  0.9079  0.9079  0.4691
  0.6587  0.6587  0.6054  0.6054

 Free energy of the ion-electron system (eV)
  ---------------------------------------------------
  alpha Z        PSCENC =       863.50316679
  Ewald energy   TEWEN  =    -12002.33478764
  -1/2 Hartree   DENC   =     -5143.66923904
  -V(xc)+E(xc)   XCENC  =       653.92785258
  PAW double counting   =     12932.88084309   -13447.28650362
  entropy T*S    EENTRO =         0.00000000
  eigenvalues    EBANDS =     -2151.64069328
  atomic energy  EATOM  =     18200.22717729
  ---------------------------------------------------
  free energy    TOTEN  =       -94.39218383 eV

  energy without entropy =      -94.39218383  energy(sigma->0) =      -94.39218383


--------------------------------------------------------------------------------------------------------




----------------------------------------- Iteration    1(  20)  ---------------------------------------


    POTLOK:  VPU time    0.07: CPU time    0.07
    SETDIJ:  VPU time    0.02: CPU time    0.02
    EDDAV :  VPU time   29.20: CPU time   29.32
 BZINTS: Fermi energy:  4.201735;132.000000 electrons
         Band energy:***********;  BLOECHL correction: -0.000000
    DOS   :  VPU time    0.00: CPU time   -0.00
    CHARGE:  VPU time    1.52: CPU time    1.53
    MIXING:  VPU time    0.00: CPU time    0.01
    ------------------------------------------
      LOOP:  VPU time   30.96: CPU time   31.74

 eigenvalue-minimisations  : 10736
 total energy-change (2. order) :-0.1562884E-03  (-0.1776182E-04)
 number of electron  132.0000690 magnetization   27.9944077
 augmentation part    55.7527434 magnetization   19.1527391

 Broyden mixing:
  rms(total) = 0.74079E-02    rms(broyden)= 0.74066E-02
  rms(prec ) = 0.76757E-02
  weight for this iteration     100.00

 eigenvalues of (default mixing * dielectric matrix)
  average eigenvalue GAMMA=   1.1349
  2.4215  2.4215  2.0503  2.0503  0.1791  1.1112  1.1112  0.9527  0.9527  0.4691
  0.7178  0.7178  0.5978  0.6356  0.6356

 Free energy of the ion-electron system (eV)
  ---------------------------------------------------
  alpha Z        PSCENC =       863.50316679
  Ewald energy   TEWEN  =    -12002.33478764
  -1/2 Hartree   DENC   =     -5143.65883543
  -V(xc)+E(xc)   XCENC  =       653.94513338
  PAW double counting   =     12932.87119202   -13447.25363608
  entropy T*S    EENTRO =         0.00000000
  eigenvalues    EBANDS =     -2151.69175045
  atomic energy  EATOM  =     18200.22717729
  ---------------------------------------------------
  free energy    TOTEN  =       -94.39234012 eV

  energy without entropy =      -94.39234012  energy(sigma->0) =      -94.39234012


--------------------------------------------------------------------------------------------------------




----------------------------------------- Iteration    1(  21)  ---------------------------------------


    POTLOK:  VPU time    0.06: CPU time    0.07
    SETDIJ:  VPU time    0.02: CPU time    0.02
    EDDAV :  VPU time   28.54: CPU time   28.65
 BZINTS: Fermi energy:  4.200417;132.000000 electrons
         Band energy:***********;  BLOECHL correction:  0.000000
    DOS   :  VPU time    0.00: CPU time   -0.00
    ------------------------------------------
      LOOP:  VPU time   28.78: CPU time   29.29

 eigenvalue-minimisations  :  9740
 total energy-change (2. order) :-0.6672999E-04  (-0.5448241E-05)
 number of electron  132.0000690 magnetization   27.9944077
 augmentation part    55.7527434 magnetization   19.1527391

 Free energy of the ion-electron system (eV)
  ---------------------------------------------------
  alpha Z        PSCENC =       863.50316679
  Ewald energy   TEWEN  =    -12002.33478764
  -1/2 Hartree   DENC   =     -5143.66136252
  -V(xc)+E(xc)   XCENC  =       653.96152823
  PAW double counting   =     12932.98606314   -13447.34626727
  entropy T*S    EENTRO =         0.00000000
  eigenvalues    EBANDS =     -2151.72792488
  atomic energy  EATOM  =     18200.22717729
  ---------------------------------------------------
  free energy    TOTEN  =       -94.39240685 eV

  energy without entropy =      -94.39240685  energy(sigma->0) =      -94.39240685


--------------------------------------------------------------------------------------------------------




 average (electrostatic) potential at core
  the test charge radii are     0.9500  0.7215
  (the norm of the test charge is              1.0000)
       1 -49.6699       2 -49.6699       3 -48.9465       4 -48.9465       5 -48.9465
       6 -48.9465       7 -71.2818       8 -71.2818       9 -71.2818      10 -71.2818
      11 -71.2818      12 -71.2818      13 -71.2818      14 -71.2818
 
 
 
 E-fermi :   4.2004     XC(G=0): -11.3553     alpha+bet : -9.4965
   add alpha+bet to get absolut eigen values

 spin component 1

 k-point   1 :       0.0000    0.0000    0.0000
  band No.  band energies     occupation 
      1     -54.0206      1.00000
      2     -54.0205      1.00000
      3     -54.0205      1.00000
      4     -54.0198      1.00000
      5     -54.0197      1.00000
      6     -54.0197      1.00000
      7     -53.4630      1.00000
      8     -53.4629      1.00000
      9     -53.4629      1.00000
     10     -53.4629      1.00000
     11     -53.4629      1.00000
     12     -53.4493      1.00000
     13     -53.4493      1.00000
     14     -53.4492      1.00000
     15     -52.8901      1.00000
     16     -52.8509      1.00000
     17     -52.8508      1.00000
     18     -52.8508      1.00000
     19     -15.6038      1.00000
     20     -14.5622      1.00000
     21     -14.5622      1.00000
     22     -14.5621      1.00000
     23     -14.5318      1.00000
     24     -14.4958      1.00000
     25     -14.4958      1.00000
     26     -14.4958      1.00000
     27      -4.6654      1.00000
     28      -4.4603      1.00000
     29      -4.4603      1.00000
     30      -4.4603      1.00000
     31      -4.0821      1.00000
     32      -4.0820      1.00000
     33      -4.0820      1.00000
     34      -4.0479      1.00000
     35      -4.0479      1.00000
     36      -4.0393      1.00000
     37      -4.0393      1.00000
     38      -3.7863      1.00000
     39      -3.7863      1.00000
     40      -3.7863      1.00000
     41      -3.6124      1.00000
     42      -3.6124      1.00000
     43      -3.6124      1.00000
     44      -3.4060      1.00000
     45      -3.4060      1.00000
     46      -2.9375      1.00000
     47      -2.9375      1.00000
     48      -2.6890      1.00000
     49      -2.3431      1.00000
     50      -2.3431      1.00000
     51      -2.3431      1.00000
     52      -2.2906      1.00000
     53      -2.2906      1.00000
     54      -2.2906      1.00000
     55      -2.0486      1.00000
     56      -2.0486      1.00000
     57      -2.0486      1.00000
     58      -1.1305      1.00000
     59      -0.9587      1.00000
     60      -0.9587      1.00000
     61      -0.9586      1.00000
     62      -0.8951      1.00000
     63      -0.8951      1.00000
     64       0.3150      1.00000
     65       0.3150      1.00000
     66       0.3150      1.00000
     67       0.5833      1.00000
     68       0.5833      1.00000
     69       0.5833      1.00000
     70       2.0587      1.00000
     71       2.0587      1.00000
     72       2.0587      1.00000
     73       2.6598      1.00000
     74       2.6598      1.00000
     75       2.6598      1.00000
     76       2.6751      1.00000
     77       2.6751      1.00000
     78       2.6751      1.00000
     79       2.9139      1.00000
     80       2.9139      1.00000
     81       5.7912      0.00000
     82      10.1118      0.00000
     83      10.2787      0.00000
     84      10.2787      0.00000
     85      10.2787      0.00000
     86      10.5223      0.00000
     87      10.5223      0.00000
     88      10.5223      0.00000
     89      12.8735      0.00000
     90      13.6336      0.00000
     91      13.6337      0.00000
     92      13.6337      0.00000
     93      14.8502      0.00000
     94      15.0061      0.00000
     95      15.0061      0.00000
     96      15.1963      0.00000
     97      15.1963      0.00000
     98      15.3277      0.00000
     99      18.0413      0.00000
    100      18.0414      0.00000
    101      18.0415      0.00000
    102      19.0096      0.00000
    103      19.0096      0.00000
    104      19.0347      0.00000
    105      19.0349      0.00000
    106      19.0349      0.00000
    107      20.2927      0.00000
    108      20.2928      0.00000

 k-point   2 :       0.1111    0.0000    0.0000
  band No.  band energies     occupation 
      1     -54.0206      1.00000
      2     -54.0205      1.00000
      3     -54.0205      1.00000
      4     -54.0198      1.00000
      5     -54.0197      1.00000
      6     -54.0197      1.00000
      7     -53.4629      1.00000
      8     -53.4629      1.00000
      9     -53.4628      1.00000
     10     -53.4625      1.00000
     11     -53.4625      1.00000
     12     -53.4497      1.00000
     13     -53.4496      1.00000
     14     -53.4493      1.00000
     15     -52.8893      1.00000
     16     -52.8517      1.00000
     17     -52.8509      1.00000
     18     -52.8508      1.00000
     19     -15.5766      1.00000
     20     -14.5865      1.00000
     21     -14.5656      1.00000
     22     -14.5656      1.00000
     23     -14.5429      1.00000
     24     -14.4961      1.00000
     25     -14.4929      1.00000
     26     -14.4929      1.00000
     27      -4.6592      1.00000
     28      -4.4570      1.00000
     29      -4.4570      1.00000
     30      -4.4390      1.00000
     31      -4.1494      1.00000
     32      -4.1493      1.00000
     33      -4.1254      1.00000
     34      -4.0728      1.00000
     35      -4.0728      1.00000
     36      -3.9619      1.00000
     37      -3.9619      1.00000
     38      -3.7507      1.00000
     39      -3.7507      1.00000
     40      -3.6746      1.00000
     41      -3.6168      1.00000
     42      -3.5893      1.00000
     43      -3.5893      1.00000
     44      -3.3999      1.00000
     45      -3.3999      1.00000
     46      -2.9465      1.00000
     47      -2.9465      1.00000
     48      -2.8569      1.00000
     49      -2.3867      1.00000
     50      -2.3866      1.00000
     51      -2.3431      1.00000
     52      -2.3179      1.00000
     53      -2.3179      1.00000
     54      -2.2708      1.00000
     55      -2.0736      1.00000
     56      -2.0736      1.00000
     57      -1.8979      1.00000
     58      -1.1488      1.00000
     59      -0.9548      1.00000
     60      -0.9548      1.00000
     61      -0.9160      1.00000
     62      -0.8039      1.00000
     63      -0.8039      1.00000
     64       0.2881      1.00000
     65       0.3395      1.00000
     66       0.3395      1.00000
     67       0.5765      1.00000
     68       0.5765      1.00000
     69       0.6130      1.00000
     70       1.8768      1.00000
     71       2.0343      1.00000
     72       2.0344      1.00000
     73       2.5647      1.00000
     74       2.5926      1.00000
     75       2.5926      1.00000
     76       2.6285      1.00000
     77       2.6597      1.00000
     78       2.6597      1.00000
     79       2.8842      1.00000
     80       2.8843      1.00000
     81       6.0050      0.00000
     82      10.0682      0.00000
     83      10.3484      0.00000
     84      10.3484      0.00000
     85      10.3919      0.00000
     86      10.5851      0.00000
     87      10.6826      0.00000
     88      10.6827      0.00000
     89      12.9051      0.00000
     90      13.6124      0.00000
     91      13.6124      0.00000
     92      13.6948      0.00000
     93      14.8458      0.00000
     94      14.9883      0.00000
     95      14.9883      0.00000
     96      15.1846      0.00000
     97      15.1846      0.00000
     98      15.3193      0.00000
     99      17.7665      0.00000
    100      18.0682      0.00000
    101      18.0684      0.00000
    102      18.6613      0.00000
    103      18.6614      0.00000
    104      19.0890      0.00000
    105      19.0891      0.00000
    106      19.0896      0.00000
    107      20.1584      0.00000
    108      20.2503      0.00000

 k-point   3 :       0.2222    0.0000    0.0000
  band No.  band energies     occupation 
      1     -54.0206      1.00000
      2     -54.0205      1.00000
      3     -54.0205      1.00000
      4     -54.0198      1.00000
      5     -54.0198      1.00000
      6     -54.0197      1.00000
      7     -53.4629      1.00000
      8     -53.4629      1.00000
      9     -53.4628      1.00000
     10     -53.4614      1.00000
     11     -53.4614      1.00000
     12     -53.4507      1.00000
     13     -53.4507      1.00000
     14     -53.4493      1.00000
     15     -52.8868      1.00000
     16     -52.8542      1.00000
     17     -52.8509      1.00000
     18     -52.8508      1.00000
     19     -15.4986      1.00000
     20     -14.6720      1.00000
     21     -14.5731      1.00000
     22     -14.5731      1.00000
     23     -14.5625      1.00000
     24     -14.4902      1.00000
     25     -14.4863      1.00000
     26     -14.4862      1.00000
     27      -4.6683      1.00000
     28      -4.4455      1.00000
     29      -4.4455      1.00000
     30      -4.3939      1.00000
     31      -4.2147      1.00000
     32      -4.2147      1.00000
     33      -4.1295      1.00000
     34      -4.1295      1.00000
     35      -4.1107      1.00000
     36      -3.8725      1.00000
     37      -3.8725      1.00000
     38      -3.6460      1.00000
     39      -3.6460      1.00000
     40      -3.6279      1.00000
     41      -3.5625      1.00000
     42      -3.5625      1.00000
     43      -3.4628      1.00000
     44      -3.3612      1.00000
     45      -3.3612      1.00000
     46      -3.0956      1.00000
     47      -2.9736      1.00000
     48      -2.9736      1.00000
     49      -2.5244      1.00000
     50      -2.5244      1.00000
     51      -2.3741      1.00000
     52      -2.3741      1.00000
     53      -2.3432      1.00000
     54      -2.3399      1.00000
     55      -2.1014      1.00000
     56      -2.1014      1.00000
     57      -1.6586      1.00000
     58      -1.1506      1.00000
     59      -0.9316      1.00000
     60      -0.9316      1.00000
     61      -0.7759      1.00000
     62      -0.6225      1.00000
     63      -0.6225      1.00000
     64       0.2477      1.00000
     65       0.3324      1.00000
     66       0.3324      1.00000
     67       0.6644      1.00000
     68       0.6644      1.00000
     69       0.6922      1.00000
     70       1.4419      1.00000
     71       1.9595      1.00000
     72       1.9595      1.00000
     73       2.2644      1.00000
     74       2.3891      1.00000
     75       2.3891      1.00000
     76       2.5454      1.00000
     77       2.5976      1.00000
     78       2.5976      1.00000
     79       2.8540      1.00000
     80       2.8540      1.00000
     81       6.5421      0.00000
     82       9.7936      0.00000
     83      10.5527      0.00000
     84      10.5527      0.00000
     85      10.7685      0.00000
     86      10.7976      0.00000
     87      11.0952      0.00000
     88      11.0953      0.00000
     89      12.9792      0.00000
     90      13.5558      0.00000
     91      13.5559      0.00000
     92      13.9076      0.00000
     93      14.8076      0.00000
     94      14.8786      0.00000
     95      14.8786      0.00000
     96      15.1904      0.00000
     97      15.1904      0.00000
     98      15.2825      0.00000
     99      17.1414      0.00000
    100      17.6176      0.00000
    101      17.6177      0.00000
    102      18.5028      0.00000
    103      18.5029      0.00000
    104      19.0607      0.00000
    105      19.2365      0.00000
    106      19.2919      0.00000
    107      19.2920      0.00000
    108      20.1469      0.00000

 k-point   4 :       0.3333    0.0000    0.0000
  band No.  band energies     occupation 
      1     -54.0206      1.00000
      2     -54.0205      1.00000
      3     -54.0204      1.00000
      4     -54.0198      1.00000
      5     -54.0198      1.00000
      6     -54.0197      1.00000
      7     -53.4629      1.00000
      8     -53.4629      1.00000
      9     -53.4628      1.00000
     10     -53.4598      1.00000
     11     -53.4597      1.00000
     12     -53.4524      1.00000
     13     -53.4523      1.00000
     14     -53.4493      1.00000
     15     -52.8835      1.00000
     16     -52.8576      1.00000
     17     -52.8509      1.00000
     18     -52.8509      1.00000
     19     -15.3812      1.00000
     20     -14.8047      1.00000
     21     -14.5804      1.00000
     22     -14.5804      1.00000
     23     -14.5772      1.00000
     24     -14.4839      1.00000
     25     -14.4798      1.00000
     26     -14.4798      1.00000
     27      -4.7087      1.00000
     28      -4.4242      1.00000
     29      -4.4241      1.00000
     30      -4.3409      1.00000
     31      -4.2608      1.00000
     32      -4.2607      1.00000
     33      -4.1904      1.00000
     34      -4.1904      1.00000
     35      -4.0082      1.00000
     36      -3.7926      1.00000
     37      -3.7926      1.00000
     38      -3.6404      1.00000
     39      -3.5828      1.00000
     40      -3.5828      1.00000
     41      -3.4815      1.00000
     42      -3.4815      1.00000
     43      -3.2917      1.00000
     44      -3.2917      1.00000
     45      -3.2633      1.00000
     46      -3.2166      1.00000
     47      -3.0132      1.00000
     48      -3.0132      1.00000
     49      -2.7126      1.00000
     50      -2.7125      1.00000
     51      -2.5030      1.00000
     52      -2.4254      1.00000
     53      -2.4254      1.00000
     54      -2.3432      1.00000
     55      -2.1069      1.00000
     56      -2.1068      1.00000
     57      -1.6426      1.00000
     58      -0.9615      1.00000
     59      -0.8795      1.00000
     60      -0.8795      1.00000
     61      -0.5893      1.00000
     62      -0.5329      1.00000
     63      -0.5329      1.00000
     64       0.2910      1.00000
     65       0.3676      1.00000
     66       0.3676      1.00000
[...]
     57       5.1034      0.00000
     58       5.1176      0.00000
     59       5.2145      0.00000
     60       5.2234      0.00000
     61       5.2686      0.00000
     62       5.2892      0.00000
     63       5.3247      0.00000
     64       5.3816      0.00000
     65       5.6560      0.00000
     66       5.7962      0.00000
     67       5.7973      0.00000
     68       5.9525      0.00000
     69       6.2316      0.00000
     70       6.2400      0.00000
     71       6.3355      0.00000
     72       6.3613      0.00000
     73       6.7308      0.00000
     74       6.7942      0.00000
     75       6.8074      0.00000
     76       6.8496      0.00000
     77       7.0717      0.00000
     78       7.1278      0.00000
     79       7.1405      0.00000
     80       7.1811      0.00000
     81      10.1141      0.00000
     82      10.7279      0.00000
     83      10.8439      0.00000
     84      11.1474      0.00000
     85      13.3764      0.00000
     86      13.5264      0.00000
     87      13.9043      0.00000
     88      14.1474      0.00000
     89      14.7028      0.00000
     90      14.7550      0.00000
     91      15.1630      0.00000
     92      15.5374      0.00000
     93      15.7953      0.00000
     94      15.9013      0.00000
     95      16.0134      0.00000
     96      16.0499      0.00000
     97      16.3018      0.00000
     98      16.4230      0.00000
     99      16.8054      0.00000
    100      17.0995      0.00000
    101      18.4518      0.00000
    102      18.6063      0.00000
    103      18.6982      0.00000
    104      19.1383      0.00000
    105      19.8504      0.00000
    106      20.0540      0.00000
    107      20.3159      0.00000
    108      20.3315      0.00000


--------------------------------------------------------------------------------------------------------


 soft charge-density along one line, spin component           1
         0         1         2         3         4         5         6         7         8         9
 total charge-density along one line
 
 soft charge-density along one line, spin component           2
         0         1         2         3         4         5         6         7         8         9
 total charge-density along one line
 
 pseudopotential strength for first ion, spin component:           1
-57.584  -0.000  -0.000  30.234   0.000   0.000   0.000   0.000
 -0.000 -57.584  -0.000   0.000  30.234   0.000  -0.009   0.000
 -0.000  -0.000 -57.584   0.000   0.000  30.234   0.000  -0.009
 30.234   0.000   0.000 -11.432  -0.000  -0.000  -0.000  -0.000
  0.000  30.234   0.000  -0.000 -11.432  -0.000   0.013  -0.000
  0.000   0.000  30.234  -0.000  -0.000 -11.432  -0.000   0.013
  0.000  -0.009   0.000  -0.000   0.013  -0.000 -12.707  -0.000
  0.000   0.000  -0.009  -0.000  -0.000   0.013  -0.000 -12.707
  0.000  -0.000   0.000  -0.000   0.000  -0.000   0.000  -0.000
 -0.009   0.000   0.000   0.013  -0.000  -0.000  -0.000  -0.000
  0.000  -0.000  -0.000  -0.000   0.000   0.000  -0.000   0.000
 -0.000   0.004  -0.000   0.000  -0.004   0.000   0.571   0.000
 -0.000  -0.000   0.004   0.000   0.000  -0.004   0.000   0.571
 -0.000   0.000  -0.000   0.000  -0.000   0.000  -0.000   0.000
  0.004  -0.000  -0.000  -0.004   0.000   0.000   0.000   0.000
 -0.000   0.000   0.000   0.000  -0.000  -0.000   0.000  -0.000
  0.000  -0.000   0.000  -0.000   0.000  -0.000   0.000   0.000
 -0.000   0.000  -0.000   0.000  -0.000   0.000  -0.000  -0.000
 pseudopotential strength for first ion, spin component:           2
-53.990  -0.000  -0.000  27.478   0.000   0.000   0.000   0.000
 -0.000 -53.990  -0.000   0.000  27.478   0.000   0.055   0.000
 -0.000  -0.000 -53.990   0.000   0.000  27.478   0.000   0.055
 27.478   0.000   0.000  -9.479  -0.000  -0.000  -0.000  -0.000
  0.000  27.478   0.000  -0.000  -9.479  -0.000  -0.042  -0.000
  0.000   0.000  27.478  -0.000  -0.000  -9.479  -0.000  -0.042
  0.000   0.055   0.000  -0.000  -0.042  -0.000  -6.579  -0.000
  0.000   0.000   0.055  -0.000  -0.000  -0.042  -0.000  -6.579
  0.000  -0.000   0.000  -0.000   0.000  -0.000   0.000  -0.000
  0.055   0.000   0.000  -0.042  -0.000  -0.000  -0.000  -0.000
  0.000  -0.000  -0.000  -0.000   0.000   0.000  -0.000   0.000
 -0.000  -0.014  -0.000   0.000   0.010   0.000  -0.441   0.000
 -0.000  -0.000  -0.014   0.000   0.000   0.010   0.000  -0.441
 -0.000   0.000  -0.000   0.000  -0.000   0.000  -0.000   0.000
 -0.014  -0.000  -0.000   0.010   0.000   0.000   0.000   0.000
 -0.000   0.000   0.000   0.000  -0.000  -0.000   0.000  -0.000
  0.000   0.000   0.000  -0.000  -0.000  -0.000   0.000   0.000
 -0.000  -0.000  -0.000   0.000   0.000   0.000  -0.000  -0.000
 total augmentation occupancy for first ion, spin component:           1
  1.998  -0.001   0.001   0.057  -0.001   0.001  -0.000   0.000   0.000   0.021   0.001  -0.003   0.003   0.001   0.123   0.002
 -0.001   1.995   0.000  -0.001   0.049   0.001   0.020   0.000  -0.001  -0.000   0.000   0.116   0.002  -0.003  -0.003  -0.000
  0.001   0.000   1.997   0.001   0.001   0.055   0.000   0.020  -0.001   0.000   0.001   0.002   0.121  -0.001   0.003   0.002
  0.057  -0.001   0.001   0.246  -0.003   0.003  -0.001   0.001   0.001   0.063   0.002  -0.006   0.006   0.002   0.294   0.004
 -0.001   0.049   0.001  -0.003   0.227   0.002   0.059   0.001  -0.003  -0.001   0.000   0.277   0.004  -0.007  -0.006  -0.000
  0.001   0.001   0.055   0.003   0.002   0.242   0.001   0.061  -0.002   0.001   0.003   0.004   0.290  -0.003   0.006   0.006
 -0.000   0.020   0.000  -0.001   0.059   0.001   1.279  -0.006  -0.002   0.009  -0.001  -0.186   0.003  -0.001  -0.005  -0.000
  0.000   0.000   0.020   0.001   0.001   0.061  -0.006   1.234   0.001  -0.013   0.002   0.003  -0.171  -0.000   0.005   0.001
  0.000  -0.001  -0.001   0.001  -0.003  -0.002  -0.002   0.001   1.064  -0.000   0.001  -0.001  -0.000  -0.278   0.000   0.000
  0.021  -0.000   0.000   0.063  -0.001   0.001   0.009  -0.013  -0.000   1.222   0.001  -0.005   0.005   0.000  -0.167   0.001
  0.001   0.000   0.001   0.002   0.000   0.003  -0.001   0.002   0.001   0.001   1.071   0.000   0.001   0.000   0.000  -0.277
 -0.003   0.116   0.002  -0.006   0.277   0.004  -0.186   0.003  -0.001  -0.005   0.000   0.787   0.010   0.001  -0.014  -0.000
  0.003   0.002   0.121   0.006   0.004   0.290   0.003  -0.171  -0.000   0.005   0.001   0.010   0.804   0.001   0.014  -0.001
  0.001  -0.003  -0.001   0.002  -0.007  -0.003  -0.001  -0.000  -0.278   0.000   0.000   0.001   0.001   0.346  -0.000   0.002
  0.123  -0.003   0.003   0.294  -0.006   0.006  -0.005   0.005   0.000  -0.167   0.000  -0.014   0.014  -0.000   0.807  -0.001
  0.002  -0.000   0.002   0.004  -0.000   0.006  -0.000   0.001   0.000   0.001  -0.277  -0.000  -0.001   0.002  -0.001   0.365
 -0.004  -0.006   0.006  -0.010  -0.015   0.015   0.009  -0.007  -0.007   0.004  -0.001  -0.011   0.010  -0.014  -0.007  -0.003
 -0.000  -0.000   0.000  -0.000  -0.001   0.001   0.001  -0.000   0.000   0.000   0.000  -0.001   0.001  -0.001  -0.001  -0.000
 total augmentation occupancy for first ion, spin component:           2
 -0.005  -0.000   0.000   0.007  -0.001   0.001   0.001  -0.001  -0.001  -0.049  -0.001  -0.002   0.002   0.001   0.046   0.001
 -0.000  -0.006   0.000  -0.001   0.004   0.001  -0.047  -0.001   0.002   0.001  -0.000   0.041   0.001  -0.002  -0.002  -0.000
  0.000   0.000  -0.005   0.001   0.001   0.007  -0.001  -0.048   0.001  -0.001  -0.002   0.001   0.045  -0.001   0.002   0.001
  0.007  -0.001   0.001   0.051  -0.002   0.002   0.001  -0.002  -0.002  -0.119  -0.003  -0.004   0.005   0.001   0.129   0.002
 -0.001   0.004   0.001  -0.002   0.044   0.001  -0.113  -0.001   0.004   0.002  -0.000   0.117   0.003  -0.004  -0.004  -0.000
  0.001   0.001   0.007   0.002   0.001   0.049  -0.001  -0.117   0.002  -0.002  -0.004   0.003   0.126  -0.002   0.005   0.003
  0.001  -0.047  -0.001   0.001  -0.113  -0.001   0.695   0.006   0.002  -0.009   0.001  -0.464  -0.004  -0.000   0.006   0.000
 -0.001  -0.001  -0.048  -0.002  -0.001  -0.117   0.006   0.740  -0.001   0.013  -0.002  -0.004  -0.479  -0.000  -0.007  -0.000
 -0.001   0.002   0.001  -0.002   0.004   0.002   0.002  -0.001   0.917   0.000  -0.001  -0.000   0.000  -0.390   0.000  -0.001
 -0.049   0.001  -0.001  -0.119   0.002  -0.002  -0.009   0.013   0.000   0.752  -0.001   0.006  -0.007   0.000  -0.484  -0.000
 -0.001  -0.000  -0.002  -0.003  -0.000  -0.004   0.001  -0.002  -0.001  -0.001   0.910  -0.000   0.000  -0.001   0.000  -0.395
 -0.002   0.041   0.001  -0.004   0.117   0.003  -0.464  -0.004  -0.000   0.006  -0.000   0.491   0.010   0.000  -0.015  -0.000
  0.002   0.001   0.045   0.005   0.003   0.126  -0.004  -0.479   0.000  -0.007   0.000   0.010   0.510   0.000   0.016  -0.000
  0.001  -0.002  -0.001   0.001  -0.004  -0.002  -0.000  -0.000  -0.390   0.000  -0.001   0.000   0.000   0.258  -0.000   0.002
  0.046  -0.002   0.002   0.129  -0.004   0.005   0.006  -0.007   0.000  -0.484   0.000  -0.015   0.016  -0.000   0.513  -0.000
  0.001  -0.000   0.001   0.002  -0.000   0.003   0.000  -0.000  -0.001  -0.000  -0.395  -0.000  -0.000   0.002  -0.000   0.275
 -0.001  -0.001   0.001  -0.002  -0.003   0.002  -0.007   0.005   0.011  -0.003   0.002  -0.002   0.002  -0.009  -0.002  -0.002
 -0.000  -0.000   0.000  -0.000  -0.001   0.001  -0.000   0.000   0.000  -0.000   0.000  -0.000   0.000  -0.001  -0.000  -0.000


------------------------ aborting loop because EDIFF is reached ----------------------------------------


 


 total charge     
 
# of ion     s       p       d       tot
----------------------------------------
  1        0.316   6.363   5.652  12.331
  2        0.316   6.363   5.652  12.331
  3        0.264   6.309   5.631  12.204
  4        0.270   6.308   5.796  12.374
  5        0.265   6.309   5.687  12.261
  6        0.265   6.309   5.653  12.227
  7        1.552   3.478   0.000   5.030
  8        1.552   3.485   0.000   5.037
  9        1.552   3.480   0.000   5.031
 10        1.552   3.479   0.000   5.031
 11        1.552   3.485   0.000   5.037
 12        1.552   3.478   0.000   5.030
 13        1.552   3.480   0.000   5.031
 14        1.552   3.479   0.000   5.031
------------------------------------------------
tot       14.111  65.806  34.071 113.988
 


 magnetization (x)
 
# of ion     s       p       d       tot
----------------------------------------
  1        0.033   0.075   4.125   4.233
  2        0.033   0.075   4.125   4.233
  3        0.035   0.030   4.157   4.222
  4        0.028   0.029   3.989   4.046
  5        0.034   0.030   4.100   4.164
  6        0.034   0.030   4.135   4.199
  7        0.018   0.266   0.000   0.285
  8        0.020   0.252   0.000   0.273
  9        0.019   0.264   0.000   0.283
 10        0.019   0.264   0.000   0.283
 11        0.020   0.252   0.000   0.273
 12        0.018   0.266   0.000   0.285
 13        0.019   0.264   0.000   0.283
 14        0.019   0.264   0.000   0.283
------------------------------------------------
tot        0.350   2.364  24.632  27.346
 


--------------------------------------------------------------------------------------------------------


    CHARGE:  VPU time    1.53: CPU time    1.53
    FORLOC:  VPU time    0.00: CPU time    0.00
    FORNL :  VPU time    6.82: CPU time    6.83
    STRESS:  VPU time   10.65: CPU time   10.66
    FORCOR:  VPU time    0.06: CPU time    0.06
    FORHAR:  VPU time    0.01: CPU time    0.01
    MIXING:  VPU time    0.01: CPU time    0.01


--------------------------------------------------------------------------------------------------------



  FREE ENERGIE OF THE ION-ELECTRON SYSTEM (eV)
  ---------------------------------------------------
  free  energy   TOTEN  =       -94.392407 eV

  energy  without entropy=      -94.392407  energy(sigma->0) =      -94.392407
 

  FORCE on cell =-STRESS in cart. coord.  units (eV/reduce length):
  Direction    X        Y        Z        XY       YZ       ZX
  --------------------------------------------------------------------------------------
  Alpha Z    863.50    863.50    863.50
  Ewald    -4000.79  -4000.79  -4000.79     -0.00      0.00      0.00
  Hartree   1714.53   1714.53   1714.53      0.00      0.00      0.00
  E(xc)     -782.09   -782.09   -782.09      0.00      0.00      0.00
  Local      437.40    437.40    437.40      0.00      0.00      0.00
  n-local   -588.96   -589.55   -587.02      0.63     -0.40      0.28
  augment    492.76    492.76    492.76     -0.00     -0.00     -0.00
  Kinetic   1865.29   1867.32   1857.60      2.29     -2.55      1.82
  -------------------------------------------------------------------------------------
  Total        0.21      0.21      0.21      0.00     -0.00      0.00
  in kB        2.15      2.15      2.15      0.00     -0.00      0.00
  external pressure =        2.15 kB  Pullay stress =        0.00 kB


 VOLUME and BASIS-vectors are now :
 -----------------------------------------------------------------------------
  energy-cutoff  :      560.00
  volume of cell :      157.01
      direct lattice vectors                 reciprocal lattice vectors
     0.000000000  4.281862888  4.281862888    -0.116771605  0.116771605  0.116771605
     4.281862888  0.000000000  4.281862888     0.116771605 -0.116771605  0.116771605
     4.281862888  4.281862888  0.000000000     0.116771605  0.116771605 -0.116771605

  length of vectors
     6.055468569  6.055468569  6.055468569     0.202254352  0.202254352  0.202254352


 FORCES acting on ions
    electron-ion (+dipol)            ewald-force                    non-local-force                 convergence-correction
 -----------------------------------------------------------------------------------------------
   -.259E-04 -.259E-04 -.253E-04   -.116E-10 -.113E-10 0.225E-10   0.226E-16 0.278E-16 -.173E-17   0.206E-06 0.206E-06 0.428E-04
   0.259E-04 0.259E-04 0.253E-04   0.116E-10 0.117E-10 -.221E-10   -.156E-16 -.208E-16 -.182E-16   -.206E-06 -.206E-06 -.428E-04
   0.136E-11 0.498E-11 -.898E-12   -.171E-13 -.501E-13 0.409E-13   0.000E+00 0.000E+00 0.265E-22   -.769E-13 -.200E-13 0.156E-14
   0.442E-12 -.470E-13 0.463E-12   0.497E-13 0.367E-13 -.718E-13   0.132E-22 0.265E-22 0.000E+00   -.317E-13 -.433E-13 -.198E-14
   -.685E-11 -.637E-11 0.466E-12   0.321E-14 0.497E-13 -.796E-13   0.265E-22 0.000E+00 0.000E+00   -.112E-12 -.448E-15 0.724E-14
   0.222E-11 0.154E-12 0.266E-11   0.103E-12 0.231E-13 0.506E-13   -.265E-22 0.000E+00 0.000E+00   -.705E-13 -.770E-14 0.153E-13
   -.620E+02 -.620E+02 0.620E+02   0.621E+02 0.621E+02 -.621E+02   -.112E+00 -.112E+00 0.112E+00   0.118E-01 0.118E-01 -.118E-01
   0.620E+02 -.620E+02 -.620E+02   -.621E+02 0.621E+02 0.621E+02   0.112E+00 -.112E+00 -.112E+00   -.117E-01 0.117E-01 0.118E-01
   -.620E+02 0.620E+02 -.620E+02   0.621E+02 -.621E+02 0.621E+02   -.112E+00 0.112E+00 -.112E+00   0.117E-01 -.117E-01 0.118E-01
   0.620E+02 0.620E+02 0.620E+02   -.621E+02 -.621E+02 -.621E+02   0.112E+00 0.112E+00 0.112E+00   -.118E-01 -.118E-01 -.118E-01
   -.620E+02 0.620E+02 0.620E+02   0.621E+02 -.621E+02 -.621E+02   -.112E+00 0.112E+00 0.112E+00   0.117E-01 -.117E-01 -.118E-01
   0.620E+02 0.620E+02 -.620E+02   -.621E+02 -.621E+02 0.621E+02   0.112E+00 0.112E+00 -.112E+00   -.118E-01 -.118E-01 0.118E-01
   0.620E+02 -.620E+02 0.620E+02   -.621E+02 0.621E+02 -.621E+02   0.112E+00 -.112E+00 0.112E+00   -.117E-01 0.117E-01 -.118E-01
   -.620E+02 -.620E+02 -.620E+02   0.621E+02 0.621E+02 0.621E+02   -.112E+00 -.112E+00 -.112E+00   0.118E-01 0.118E-01 0.118E-01
 -----------------------------------------------------------------------------------------------
   -.387E-11 0.303E-11 0.282E-11   0.149E-12 0.227E-12 0.142E-13   0.139E-16 -.139E-16 -.416E-16   -.460E-12 -.261E-13 -.176E-13
 
 
 POSITION                                       TOTAL-FORCE (eV/Angst)
 -----------------------------------------------------------------------------------
      3.21140      3.21140      1.07047         0.000000      0.000000      0.000000
      5.35233      5.35233      7.49326        -0.000000     -0.000000     -0.000000
      4.28186      4.28186      4.28186        -0.000000     -0.000000      0.000000
      2.14093      0.00000      2.14093         0.000000     -0.000000      0.000000
      0.00000      2.14093      2.14093         0.000000     -0.000000      0.000000
      2.14093      2.14093      4.28186         0.000000      0.000000      0.000000
      2.09277      2.09277      2.18909        -0.011800     -0.011800      0.011800
      4.33002      6.37463      4.23370         0.011800     -0.011800     -0.011800
      6.37463      4.33002      4.23370        -0.011800      0.011800     -0.011800
      4.33002      4.33002      2.18909         0.011800      0.011800      0.011800
      4.23370      2.18909      4.33002        -0.011800      0.011800      0.011800
      6.47096      6.47096      6.37463         0.011800      0.011800     -0.011800
      2.18909      4.23370      4.33002         0.011800     -0.011800      0.011800
      4.23370      4.23370      6.37463        -0.011800     -0.011800     -0.011800
 -----------------------------------------------------------------------------------
    total drift:                               -0.000000      0.000000      0.000000


--------------------------------------------------------------------------------------------------------



 mean value of Nose-termostat <S>:     1.000 mean value of <T> :     0.000
 mean temperature <T/S>/<1/S>  :     0.000

     LOOP+:  VPU time 1039.75: CPU time 1055.30
 


 total charge     
 
# of ion     s       p       d       tot
----------------------------------------
  1        0.316   6.363   5.652  12.331
  2        0.316   6.363   5.652  12.331
  3        0.264   6.309   5.631  12.204
  4        0.270   6.308   5.796  12.374
  5        0.265   6.309   5.687  12.261
  6        0.265   6.309   5.653  12.227
  7        1.552   3.478   0.000   5.030
  8        1.552   3.485   0.000   5.037
  9        1.552   3.480   0.000   5.031
 10        1.552   3.479   0.000   5.031
 11        1.552   3.485   0.000   5.037
 12        1.552   3.478   0.000   5.030
 13        1.552   3.480   0.000   5.031
 14        1.552   3.479   0.000   5.031
------------------------------------------------
tot       14.111  65.806  34.071 113.988
 


 magnetization (x)
 
# of ion     s       p       d       tot
----------------------------------------
  1        0.033   0.075   4.125   4.233
  2        0.033   0.075   4.125   4.233
  3        0.035   0.030   4.157   4.222
  4        0.028   0.029   3.989   4.046
  5        0.034   0.030   4.100   4.164
  6        0.034   0.030   4.135   4.199
  7        0.018   0.266   0.000   0.285
  8        0.020   0.252   0.000   0.273
  9        0.019   0.264   0.000   0.283
 10        0.019   0.264   0.000   0.283
 11        0.020   0.252   0.000   0.273
 12        0.018   0.266   0.000   0.285
 13        0.019   0.264   0.000   0.283
 14        0.019   0.264   0.000   0.283
------------------------------------------------
tot        0.350   2.364  24.632  27.346
 
 BZINTS: Fermi energy:  4.200417;132.000000 electrons
         Band energy:***********;  BLOECHL correction:  0.000000
  
  
 General timing and accounting informations for this job:
 ========================================================
  
                  Total CPU time used (sec):     1064.818
                            User time (sec):     1051.744
                          System time (sec):       13.074
                         Elapsed time (sec):     1091.852
  
                   Maximum memory used (kb):       82628.
                   Average memory used (kb):           0.
  
                          Minor page faults:        11456
                          Major page faults:            0
                 Voluntary context switches:          975
