 vasp.4.6.35 3Apr08 complex 
 executed on             LinuxIFC date 2014.07.14  07:41:01
 running on   16 nodes
 distr:  one band on    8 nodes,    2 groups


--------------------------------------------------------------------------------------------------------


 INCAR:
 POTCAR:   PAW_PBE Ag 06Sep2000                   
 POTCAR:   PAW_PBE Au 06Sep2000                   
 POTCAR:   PAW_PBE Se 06Sep2000                   
 POTCAR:   PAW_PBE Ag 06Sep2000                   
   VRHFIN =Ag : s1 d10                                                          
   LEXCH  = PE                                                                  
   EATOM  =  1037.4134 eV,   76.2477 Ry                                         
                                                                                
   TITEL  = PAW_PBE Ag 06Sep2000                                                
   LULTRA =        F    use ultrasoft PP ?                                      
   IUNSCR =        1    unscreen: 0-lin 1-nonlin 2-no                           
   RPACOR =    2.000    partial core radius                                     
   POMASS =  107.868; ZVAL   =   11.000    mass and valenz                      
   RCORE  =    2.400    outmost cutoff radius                                   
   RWIGS  =    2.840; RWIGS  =    1.503    wigner-seitz radius (au A)           
   ENMAX  =  249.846; ENMIN  =  187.385 eV                                      
   RCLOC  =    1.962    cutoff for local pot                                    
   LCOR   =        T    correct aug charges                                     
   LPAW   =        T    paw PP                                                  
   EAUG   =  412.496                                                            
   DEXC   =    -.047                                                            
   RMAX   =    2.917    core radius for proj-oper                               
   RAUG   =    1.300    factor for augmentation sphere                          
   RDEP   =    2.416    radius for radial grids                                 
   QCUT   =   -4.285; QGAM   =    8.570    optimization parameters              
                                                                                
   Description                                                                  
     l     E      TYP  RCUT    TYP  RCUT                                        
     2   .000     23  2.400                                                     
     2   .000     23  2.400                                                     
     0   .000     23  2.400                                                     
     0   .000     23  2.400                                                     
     1  -.200     23  2.400                                                     
     1  1.500     23  2.400                                                     
     3   .000      7   .000                                                     
  local pseudopotential read in
  partial core-charges read in
  atomic valenz-charges read in
  non local Contribution for L=           2  read in
    real space projection operators read in
  non local Contribution for L=           2  read in
    real space projection operators read in
  non local Contribution for L=           0  read in
    real space projection operators read in
  non local Contribution for L=           0  read in
    real space projection operators read in
  non local Contribution for L=           1  read in
    real space projection operators read in
  non local Contribution for L=           1  read in
    real space projection operators read in
    PAW grid and wavefunctions read in
 
   number of l-projection  operators is LMAX  =           6
   number of lm-projection operators is LMMAX =          18
 
 POTCAR:   PAW_PBE Au 06Sep2000                   
   VRHFIN =Au: s1d10                                                            
   LEXCH  = PE                                                                  
   EATOM  =   926.0567 eV,   68.0632 Ry                                         
                                                                                
   TITEL  = PAW_PBE Au 06Sep2000                                                
   LULTRA =        F    use ultrasoft PP ?                                      
   IUNSCR =        1    unscreen: 0-lin 1-nonlin 2-no                           
   RPACOR =    2.330    partial core radius                                     
   POMASS =  196.966; ZVAL   =   11.000    mass and valenz                      
   RCORE  =    2.500    outmost cutoff radius                                   
   RWIGS  =    2.840; RWIGS  =    1.503    wigner-seitz radius (au A)           
   ENMAX  =  229.948; ENMIN  =  172.461 eV                                      
   RCLOC  =    1.964    cutoff for local pot                                    
   LCOR   =        T    correct aug charges                                     
   LPAW   =        T    paw PP                                                  
   EAUG   =  356.670                                                            
   DEXC   =    -.025                                                            
   RMAX   =    3.041    core radius for proj-oper                               
   RAUG   =    1.300    factor for augmentation sphere                          
   RDEP   =    2.598    radius for radial grids                                 
   QCUT   =   -4.111; QGAM   =    8.222    optimization parameters              
                                                                                
   Description                                                                  
     l     E      TYP  RCUT    TYP  RCUT                                        
     2   .000     23  2.500                                                     
     2   .000     23  2.500                                                     
     0   .000     23  2.500                                                     
     0   .000     23  2.500                                                     
     1  -.200     23  2.500                                                     
     1   .000     23  2.500                                                     
     3   .000      7   .000                                                     
  local pseudopotential read in
  partial core-charges read in
  atomic valenz-charges read in
  non local Contribution for L=           2  read in
    real space projection operators read in
  non local Contribution for L=           2  read in
    real space projection operators read in
  non local Contribution for L=           0  read in
    real space projection operators read in
  non local Contribution for L=           0  read in
    real space projection operators read in
  non local Contribution for L=           1  read in
    real space projection operators read in
  non local Contribution for L=           1  read in
    real space projection operators read in
    PAW grid and wavefunctions read in
 
   number of l-projection  operators is LMAX  =           6
   number of lm-projection operators is LMMAX =          18
 
 POTCAR:   PAW_PBE Se 06Sep2000                   
   VRHFIN =Se: s2p4                                                             
   LEXCH  = PE                                                                  
   EATOM  =   256.9644 eV,   18.8864 Ry                                         
                                                                                
   TITEL  = PAW_PBE Se 06Sep2000                                                
   LULTRA =        F    use ultrasoft PP ?                                      
   IUNSCR =        1    unscreen: 0-lin 1-nonlin 2-no                           
   RPACOR =    1.900    partial core radius                                     
   POMASS =   78.960; ZVAL   =    6.000    mass and valenz                      
   RCORE  =    2.100    outmost cutoff radius                                   
   RWIGS  =    2.200; RWIGS  =    1.164    wigner-seitz radius (au A)           
   ENMAX  =  211.534; ENMIN  =  158.651 eV                                      
   ICORE  =        3    local potential                                         
   LCOR   =        T    correct aug charges                                     
   LPAW   =        T    paw PP                                                  
   EAUG   =  446.842                                                            
   DEXC   =    -.031                                                            
   RMAX   =    3.170    core radius for proj-oper                               
   RAUG   =    1.300    factor for augmentation sphere                          
   RDEP   =    2.177    radius for radial grids                                 
   QCUT   =   -3.943; QGAM   =    7.886    optimization parameters              
                                                                                
   Description                                                                  
     l     E      TYP  RCUT    TYP  RCUT                                        
     0   .000     23  2.100                                                     
     0   .000     23  2.100                                                     
     1   .000     23  2.100                                                     
     1   .000     23  2.100                                                     
     2   .000     23  2.100                                                     
     3  -.100      7  2.100                                                     
  local pseudopotential read in
  partial core-charges read in
  atomic valenz-charges read in
  non local Contribution for L=           0  read in
    real space projection operators read in
  non local Contribution for L=           0  read in
    real space projection operators read in
  non local Contribution for L=           1  read in
    real space projection operators read in
  non local Contribution for L=           1  read in
    real space projection operators read in
  non local Contribution for L=           2  read in
    real space projection operators read in
    PAW grid and wavefunctions read in
 
   number of l-projection  operators is LMAX  =           5
   number of lm-projection operators is LMMAX =          13
 

 ----------------------------------------------------------------------------- 
|                                                                             |
|  ADVICE TO THIS USER RUNNING 'VASP/VAMP'   (HEAR YOUR MASTER'S VOICE ...):  |
|                                                                             |
|      You have a (more or less) 'large supercell' and for larger cells       |
|      it might be more efficient to use real space projection operators      |
|      So try LREAL= Auto  in the INCAR   file.                               |
|      Mind: If you want to do an extremely accurate calculations keep the    |
|      reciprocal projection scheme          (i.e. LREAL=.FALSE.)             |
|                                                                             |
 ----------------------------------------------------------------------------- 

 PAW_PBE Ag 06Sep2000                   :
 energy of atom  1       EATOM=-1037.4134
 kinetic energy error for atom=    0.0273 (will be added to EATOM!!)
 PAW_PBE Au 06Sep2000                   :
 energy of atom  2       EATOM= -926.0567
 kinetic energy error for atom=    0.0153 (will be added to EATOM!!)
 PAW_PBE Se 06Sep2000                   :
 energy of atom  3       EATOM= -256.9644
 kinetic energy error for atom=    0.0032 (will be added to EATOM!!)
 
 EXHCAR: internal setup
 exchange correlation table for  LEXCH =        8
   RHO(1)=    0.500       N(1)  =     2000
   RHO(2)=  100.500       N(2)  =     4000
 
 POSCAR: Ag3Au1Se2   [BCC,BCC,cI48] (STD_PRIM doi
  positions in direct lattice
  No initial velocities read in
 


--------------------------------------------------------------------------------------------------------


 ion  position               nearest neighbor table
   1  0.250  0.624  0.374-  21 2.78  23 2.78  17 2.92  20 2.92  13 3.09  16 3.09   7 3.09   8 3.09
                            11 3.11  12 3.11
   2  0.750  0.876  0.126-  22 2.78  24 2.78  18 2.92  19 2.92  14 3.09  15 3.09   7 3.09   8 3.09
                            11 3.11  12 3.11
   3  0.374  0.250  0.624-  21 2.78  24 2.78  17 2.92  19 2.92  13 3.09  15 3.09  11 3.09  12 3.09
                             9 3.11  10 3.11
   4  0.126  0.750  0.876-  22 2.78  23 2.78  18 2.92  20 2.92  14 3.09  16 3.09  11 3.09  12 3.09
                             9 3.11  10 3.11
   5  0.624  0.374  0.250-  23 2.78  24 2.78  17 2.92  18 2.92  13 3.09  14 3.09   9 3.09  10 3.09
                             7 3.11   8 3.11
   6  0.876  0.126  0.750-  21 2.78  22 2.78  19 2.92  20 2.92  15 3.09  16 3.09   9 3.09  10 3.09
                             7 3.11   8 3.11
   7  0.624  0.750  0.374-  17 2.78  19 2.78  21 2.92  24 2.92  14 3.09  16 3.09   1 3.09   2 3.09
                             5 3.11   6 3.11
   8  0.876  0.250  0.126-  18 2.78  20 2.78  22 2.92  23 2.92  13 3.09  15 3.09   1 3.09   2 3.09
                             5 3.11   6 3.11
   9  0.750  0.374  0.624-  17 2.78  20 2.78  21 2.92  23 2.92  14 3.09  15 3.09   5 3.09   6 3.09
                             3 3.11   4 3.11
  10  0.250  0.126  0.876-  18 2.78  19 2.78  22 2.92  24 2.92  13 3.09  16 3.09   5 3.09   6 3.09
                             3 3.11   4 3.11
  11  0.126  0.876  0.250-  19 2.78  20 2.78  21 2.92  22 2.92  13 3.09  14 3.09   3 3.09   4 3.09
                             1 3.11   2 3.11
  12  0.374  0.624  0.750-  17 2.78  18 2.78  23 2.92  24 2.92  15 3.09  16 3.09   3 3.09   4 3.09
                             1 3.11   2 3.11
  13  0.250  0.250  0.250-  17 2.49  22 2.49   5 3.09   8 3.09  10 3.09  11 3.09   1 3.09   3 3.09
                            16 3.58  14 3.58  15 3.58
  14  0.500  0.000  0.250-  18 2.49  21 2.49   5 3.09   7 3.09   9 3.09  11 3.09   2 3.09   4 3.09
                            15 3.58  16 3.58  13 3.58
  15  0.000  0.250  0.500-  19 2.49  23 2.49   6 3.09   8 3.09   9 3.09  12 3.09   2 3.09   3 3.09
                            14 3.58  16 3.58  13 3.58
  16  0.250  0.500  0.000-  20 2.49  24 2.49   6 3.09   7 3.09  10 3.09  12 3.09   1 3.09   4 3.09
                            14 3.58  13 3.58  15 3.58
  17  0.534  0.534  0.534-  13 2.49   9 2.78  12 2.78   7 2.78   3 2.92   5 2.92   1 2.92
  18  0.500  0.000  0.966-  14 2.49  10 2.78  12 2.78   8 2.78   4 2.92   5 2.92   2 2.92
  19  0.000  0.966  0.500-  15 2.49  11 2.78  10 2.78   7 2.78   3 2.92   6 2.92   2 2.92
  20  0.966  0.500  0.000-  16 2.49   9 2.78  11 2.78   8 2.78   4 2.92   6 2.92   1 2.92
  21  0.500  0.000  0.534-  14 2.49   3 2.78   6 2.78   1 2.78   9 2.92  11 2.92   7 2.92
  22  0.966  0.966  0.966-  13 2.49   4 2.78   6 2.78   2 2.78  10 2.92  11 2.92   8 2.92
  23  0.000  0.534  0.500-  15 2.49   4 2.78   5 2.78   1 2.78   9 2.92  12 2.92   8 2.92
  24  0.534  0.500  0.000-  16 2.49   5 2.78   3 2.78   2 2.78  10 2.92  12 2.92   7 2.92
 
  LATTYP: Found a body centered cubic cell.
 ALAT       =    10.1300237509
  
  Lattice vectors:
  
 A1 = (  -5.0650118755,   5.0650118755,   5.0650118755)
 A2 = (   5.0650118755,  -5.0650118755,   5.0650118755)
 A3 = (   5.0650118755,   5.0650118755,  -5.0650118755)
 Subroutine PRICEL returns:
 Original cell was already a primitive cell.
 

Analysis of symmetry for initial positions (statically):

 Routine SETGRP: Setting up the symmetry group for a 
 body centered cubic supercell.


 Subroutine GETGRP returns: Found 24 space group operations
 (whereof  3 operations were pure point group operations)
 out of a pool of 48 trial point group operations.


The static configuration has the point symmetry C_3 .
 The point group associated with its full space group is O   .

Analysis of symmetry for dynamics (positions and initial velocities):

 Subroutine DYNSYM returns: Found 24 space group operations
 (whereof  3 operations were pure point group operations)
 out of a pool of 24 trial space group operations
 (whereof  3 operations were pure point group operations)
 and found also     1 'primitive' translations


The dynamic configuration has the point symmetry C_3 .
 The point group associated with its full space group is O   .
 
 
 KPOINTS: KPOINTS File, automatically generated by

Automatic generation of k-mesh.
 
 Subroutine IBZKPT returns following result:
 ===========================================
 
 Found     26 irreducible k-points:
 
 Following reciprocal coordinates:
            Coordinates               Weight
  0.062500  0.062500  0.062500      8.000000
  0.187500  0.062500  0.062500     24.000000
  0.312500  0.062500  0.062500     24.000000
  0.437500  0.062500  0.062500     12.000000
 -0.062500  0.062500  0.062500      6.000000
  0.187500  0.187500  0.062500     24.000000
  0.312500  0.187500  0.062500     48.000000
 -0.187500  0.187500  0.062500     24.000000
  0.312500  0.312500  0.062500      8.000000
 -0.312500  0.312500  0.062500     24.000000
 -0.187500  0.312500  0.062500     24.000000
 -0.437500  0.437500  0.062500     24.000000
 -0.312500  0.437500  0.062500     48.000000
 -0.437500 -0.437500  0.062500     24.000000
 -0.312500 -0.437500  0.062500     24.000000
  0.187500  0.187500  0.187500      8.000000
  0.312500  0.187500  0.187500     12.000000
 -0.187500  0.187500  0.187500      6.000000
 -0.312500  0.312500  0.187500     24.000000
 -0.437500  0.437500  0.187500     24.000000
 -0.312500  0.437500  0.187500     24.000000
 -0.437500 -0.437500  0.187500     24.000000
 -0.312500  0.312500  0.312500      6.000000
 -0.437500  0.437500  0.312500     24.000000
 -0.437500 -0.437500  0.312500      8.000000
 -0.437500  0.437500  0.437500      6.000000
 
 Following cartesian coordinates:
            Coordinates               Weight
  0.012340  0.012340  0.012340      8.000000
  0.012340  0.024679  0.024679     24.000000
  0.012340  0.037019  0.037019     24.000000
  0.012340  0.049358  0.049358     12.000000
  0.012340  0.000000  0.000000      6.000000
  0.024679  0.024679  0.037019     24.000000
  0.024679  0.037019  0.049358     48.000000
  0.024679 -0.012340  0.000000     24.000000
  0.037019  0.037019  0.061698      8.000000
  0.037019 -0.024679  0.000000     24.000000
  0.037019 -0.012340  0.012340     24.000000
  0.049358 -0.037019  0.000000     24.000000
  0.049358 -0.024679  0.012340     48.000000
 -0.037019 -0.037019 -0.086377     24.000000
 -0.037019 -0.024679 -0.074037     24.000000
  0.037019  0.037019  0.037019      8.000000
  0.037019  0.049358  0.049358     12.000000
  0.037019  0.000000  0.000000      6.000000
  0.049358 -0.012340  0.000000     24.000000
  0.061698 -0.024679  0.000000     24.000000
  0.061698 -0.012340  0.012340     24.000000
 -0.024679 -0.024679 -0.086377     24.000000
  0.061698  0.000000  0.000000      6.000000
  0.074037 -0.012340  0.000000     24.000000
 -0.012340 -0.012340 -0.086377      8.000000
  0.086377  0.000000  0.000000      6.000000
 
 TETIRR: Found    534 inequivalent tetrahedra from     3072


--------------------------------------------------------------------------------------------------------




 Dimension of arrays:
   k-Points           NKPTS =     26   number of bands    NBANDS=    172
   number of dos      NEDOS =   5000   number of ions     NIONS =     24
   non local maximal  LDIM  =      6   non local SUM 2l+1 LMDIM =     18
   total plane-waves  NPLWV = 157464
   max r-space proj   IRMAX =      1   max aug-charges    IRDMAX=   7729
   dimension x,y,z NGX =    54 NGY =   54 NGZ =   54
   dimension x,y,z NGXF=    80 NGYF=   80 NGZF=   80
   support grid    NGXF=    80 NGYF=   80 NGZF=   80
   ions per type =              12   4   8
 NGX,Y,Z   is equivalent  to a cutoff of  10.23, 10.23, 10.23 a.u.
 NGXF,Y,Z  is equivalent  to a cutoff of  15.16, 15.16, 15.16 a.u.


 I would recommend the setting:
   dimension x,y,z NGX =    54 NGY =   54 NGZ =   54
 SYSTEM =  Ag3Au1Se2_ICSD_171959                   
 POSCAR =  Ag3Au1Se2   [BCC,BCC,cI48] (STD_PRIM doi

 Startparameter for this run:
   NWRITE =      2    write-flag & timer
   PREC   = high      medium, high low
   ISTART =      0    job   : 0-new  1-cont  2-samecut
   ICHARG =      2    charge: 1-file 2-atom 10-const
   ISPIN  =      1    spin polarized calculation?
   LNONCOLLINEAR =      F non collinear calculations
   LSORBIT =      F    spin-orbit coupling
   INIWAV =      1    electr: 0-lowe 1-rand  2-diag
   LASPH  =      F    aspherical Exc in radial PAW
   METAGGA=      F    non-selfconsistent MetaGGA calc.

 Electronic Relaxation 1
   ENCUT  =  349.8 eV  25.71 Ry    5.07 a.u.  13.38 13.38 13.38*2*pi/ulx,y,z
   ENINI  =  349.8     initial cutoff
   ENAUG  =  446.8 eV  augmentation charge cutoff
   NELM   =    120;   NELMIN=  2; NELMDL=  0     # of ELM steps 
   EDIFF  = 0.1E-03   stopping-criterion for ELM
   LREAL  =      F    real-space projection
   LCOMPAT=      F    compatible to vasp.4.4
   LREAL_COMPAT= F    compatible to vasp.4.5.1-3
   GGA_COMPAT  = T    GGA compatible to vasp.4.4-vasp.4.6
   LMAXPAW     = -100 max onsite density
   LMAXMIX     =    4 max onsite mixed and CHGCAR
   VOSKOWN=      0    Vosko Wilk Nusair interpolation
   ROPT   =    0.00000   0.00000   0.00000
 Ionic relaxation
   EDIFFG = 0.1E-02   stopping-criterion for IOM
   NSW    =      0    number of steps for IOM
   NBLOCK =      1;   KBLOCK =      1    inner block; outer block 
   IBRION =     -1    ionic relax: 0-MD 1-quasi-New 2-CG
   NFREE  =      1    steps in history (QN), initial steepest desc. (CG)
   ISIF   =      2    stress and relaxation
   IWAVPR =     10    prediction:  0-non 1-charg 2-wave 3-comb
   ISYM   =      2    0-nonsym 1-usesym 2-fastsym
   LCORR  =      T    Harris-Foulkes like correction to forces

   POTIM  =   0.50    time-step for ionic-motion
   TEIN   =    0.0    initial temperature
   TEBEG  =    0.0;   TEEND  =   0.0 temperature during run
   SMASS  =  -3.00    Nose mass-parameter (am)
   estimated Nose-frequenzy (Omega)   =  0.10E-29 period in steps =****** mass=  -0.176E-26a.u.
   NPACO  =    256;   APACO  = 16.0  distance and # of slots for P.C.
   PSTRESS=    0.0 pullay stress

  Mass of Ions in am
   POMASS = 107.87196.97 78.96
  Ionic Valenz
   ZVAL   =  11.00 11.00  6.00
  Atomic Wigner-Seitz radii
   RWIGS  =  -1.00 -1.00 -1.00
   NELECT =     224.0000    total number of electrons
   NUPDOWN=      -1.0000    fix difference up-down

 DOS related values:
   EMIN   = -30.00;   EMAX   = 45.00  energy-range for DOS
   ISMEAR =    -5;   SIGMA  =   0.05  broadening in eV -4-tet -1-fermi 0-gaus

 Electronic relaxation 2 (details)
   IALGO  =     38    algorithm
   LDIAG  =      T    sub-space diagonalisation
   IMIX   =      4    mixing-type and parameters
     AMIX     =   0.40;   BMIX     =  1.00
     AMIX_MAG =   1.60;   BMIX_MAG =  1.00
     AMIN     =   0.10
     WC   =   100.;   INIMIX=   1;  MIXPRE=   1

 Intra band minimization:
   WEIMIN = 0.0000     energy-eigenvalue tresh-hold
   EBREAK =  0.15E-06  absolut break condition
   DEPER  =   0.30     relativ break condition  

   TIME   =   0.10     timestep for ELM

  volume/ion in A,a.u.               =      21.66       146.15
  Fermi-wavevector in a.u.,eV,Ry     =   1.236584 20.805221  1.529141

 Second variation
   LSECVAR=     F    do a second variation
 
 Write flags
   LWAVE  =      F    write WAVECAR
   LCHARG =      T    write CHGCAR
   LVTOT  =      F    write LOCPOT, local potential
   LELF   =      F    write electronic localiz. function (ELF)
   LORBIT =     10    0 simple, 1 ext, 2 COOP (PROOUT)


 Dipole corrections
   IDIPOL =      0    1-x, 2-y, 3-z
   LDIPOL =      F    correct potential

 LDA+U is selected, type is set to LDAUTYPE =  2
   angular momentum for each species LDAUL =     2    2    0
   U (eV)           for each species LDAUU =   5.8  4.0  0.0
   J (eV)           for each species LDAUJ =   0.0  0.0  0.0


--------------------------------------------------------------------------------------------------------


 Static calculation
 charge density will be updated during run
 non-spin polarized calculation
 Variant of blocked Davidson
 Davidson routine will perform the subspace rotation
 performe sub-space diagonalisation
    after iterative eigenvector-optimisation
 modified Broyden-mixing scheme, WC =      100.0
 initial mixing is a Kerker type mixing with AMIX =  0.4000 and BMIX =      1.0000
 Hartree-type preconditioning will be used
 using additional bands           60
 reciprocal scheme for non local part
 use partial core corrections
 calculate Harris-corrections to forces 
   (improved forces if not selfconsistent)
 use gradient corrections 
 use of overlap-Matrix (Vanderbilt PP)
 Fermi weights with tetrahedron method with Bloechl corrections


--------------------------------------------------------------------------------------------------------


  energy-cutoff  :      349.78
  volume of cell :      519.76
      direct lattice vectors                 reciprocal lattice vectors
    -5.065011875  5.065011875  5.065011875     0.000000000  0.098716452  0.098716452
     5.065011875 -5.065011875  5.065011875     0.098716452  0.000000000  0.098716452
     5.065011875  5.065011875 -5.065011875     0.098716452  0.098716452  0.000000000

  length of vectors
     8.772857909  8.772857909  8.772857909     0.139606145  0.139606145  0.139606145


 
 k-points in units of 2pi/SCALE and weight: KPOINTS File, automatically generated by
   0.01233956  0.01233956  0.01233956       0.016
   0.01233956  0.02467911  0.02467911       0.047
   0.01233956  0.03701867  0.03701867       0.047
   0.01233956  0.04935823  0.04935823       0.023
   0.01233956  0.00000000  0.00000000       0.012
   0.02467911  0.02467911  0.03701867       0.047
   0.02467911  0.03701867  0.04935823       0.094
   0.02467911 -0.01233956  0.00000000       0.047
   0.03701867  0.03701867  0.06169778       0.016
   0.03701867 -0.02467911  0.00000000       0.047
   0.03701867 -0.01233956  0.01233956       0.047
   0.04935823 -0.03701867  0.00000000       0.047
   0.04935823 -0.02467911  0.01233956       0.094
  -0.03701867 -0.03701867 -0.08637690       0.047
  -0.03701867 -0.02467911 -0.07403734       0.047
   0.03701867  0.03701867  0.03701867       0.016
   0.03701867  0.04935823  0.04935823       0.023
   0.03701867  0.00000000  0.00000000       0.012
   0.04935823 -0.01233956  0.00000000       0.047
   0.06169778 -0.02467911  0.00000000       0.047
   0.06169778 -0.01233956  0.01233956       0.047
  -0.02467911 -0.02467911 -0.08637690       0.047
   0.06169778  0.00000000  0.00000000       0.012
   0.07403734 -0.01233956  0.00000000       0.047
  -0.01233956 -0.01233956 -0.08637690       0.016
   0.08637690  0.00000000  0.00000000       0.012
 
 k-points in reciprocal lattice and weights: KPOINTS File, automatically generated by
   0.06250000  0.06250000  0.06250000       0.016
   0.18750000  0.06250000  0.06250000       0.047
   0.31250000  0.06250000  0.06250000       0.047
   0.43750000  0.06250000  0.06250000       0.023
  -0.06250000  0.06250000  0.06250000       0.012
   0.18750000  0.18750000  0.06250000       0.047
   0.31250000  0.18750000  0.06250000       0.094
  -0.18750000  0.18750000  0.06250000       0.047
   0.31250000  0.31250000  0.06250000       0.016
  -0.31250000  0.31250000  0.06250000       0.047
  -0.18750000  0.31250000  0.06250000       0.047
  -0.43750000  0.43750000  0.06250000       0.047
  -0.31250000  0.43750000  0.06250000       0.094
  -0.43750000 -0.43750000  0.06250000       0.047
  -0.31250000 -0.43750000  0.06250000       0.047
   0.18750000  0.18750000  0.18750000       0.016
   0.31250000  0.18750000  0.18750000       0.023
  -0.18750000  0.18750000  0.18750000       0.012
  -0.31250000  0.31250000  0.18750000       0.047
  -0.43750000  0.43750000  0.18750000       0.047
  -0.31250000  0.43750000  0.18750000       0.047
  -0.43750000 -0.43750000  0.18750000       0.047
  -0.31250000  0.31250000  0.31250000       0.012
  -0.43750000  0.43750000  0.31250000       0.047
  -0.43750000 -0.43750000  0.31250000       0.016
  -0.43750000  0.43750000  0.43750000       0.012
 
 position of ions in fractional coordinates (direct lattice) 
   0.25000000  0.62370914  0.37370914
   0.75000000  0.87629086  0.12629086
   0.37370914  0.25000000  0.62370914
   0.12629086  0.75000000  0.87629086
   0.62370914  0.37370914  0.25000000
   0.87629086  0.12629086  0.75000000
   0.62370914  0.75000000  0.37370914
   0.87629086  0.25000000  0.12629086
   0.75000000  0.37370914  0.62370914
   0.25000000  0.12629086  0.87629086
   0.12629086  0.87629086  0.25000000
   0.37370914  0.62370914  0.75000000
   0.25000000  0.25000000  0.25000000
   0.50000000  0.00000000  0.25000000
   0.00000000  0.25000000  0.50000000
   0.25000000  0.50000000  0.00000000
   0.53380426  0.53380426  0.53380426
   0.50000000  0.00000000  0.96619574
   0.00000000  0.96619574  0.50000000
   0.96619574  0.50000000  0.00000000
   0.50000000  0.00000000  0.53380426
   0.96619574  0.96619574  0.96619574
   0.00000000  0.53380426  0.50000000
   0.53380426  0.50000000  0.00000000
 
 position of ions in cartesian coordinates  (Angst):
   3.78568247  0.00000000  2.53250594
   1.27932940 -0.00000000  7.59751781
   2.53250594  3.78568247  0.00000000
   7.59751781  1.27932940 -0.00000000
   0.00000000  2.53250594  3.78568247
  -0.00000000  7.59751781  1.27932940
   2.53250594  1.25317653  5.06501188
  -2.53250594  3.81183534  5.06501188
   1.25317653  5.06501188  2.53250594
   3.81183534  5.06501188 -2.53250594
   5.06501188 -2.53250594  3.81183534
   5.06501188  2.53250594  1.25317653
   1.26625297  1.26625297  1.26625297
  -1.26625297  3.79875891  1.26625297
   3.79875891  1.26625297 -1.26625297
   1.26625297 -1.26625297  3.79875891
   2.70372492  2.70372492  2.70372492
   2.36128696  7.42629883 -2.36128696
   7.42629883 -2.36128696  2.36128696
  -2.36128696  2.36128696  7.42629883
   0.17121898  5.23623086 -0.17121898
   4.89379289  4.89379289  4.89379289
   5.23623086 -0.17121898  0.17121898
  -0.17121898  0.17121898  5.23623086
 


--------------------------------------------------------------------------------------------------------


 k-point  1 :  0.06250.06250.0625  plane waves:   7749
 k-point  2 :  0.18750.06250.0625  plane waves:   7722
 k-point  3 :  0.31250.06250.0625  plane waves:   7735
 k-point  4 :  0.43750.06250.0625  plane waves:   7706
 k-point  5 :  -.06250.06250.0625  plane waves:   7763
 k-point  6 :  0.18750.18750.0625  plane waves:   7717
 k-point  7 :  0.31250.18750.0625  plane waves:   7716
 k-point  8 :  -.18750.18750.0625  plane waves:   7750
 k-point  9 :  0.31250.31250.0625  plane waves:   7683
 k-point 10 :  -.31250.31250.0625  plane waves:   7714
 k-point 11 :  -.18750.31250.0625  plane waves:   7715
 k-point 12 :  -.43750.43750.0625  plane waves:   7710
 k-point 13 :  -.31250.43750.0625  plane waves:   7725
 k-point 14 :  -.4375-.43750.0625  plane waves:   7723
 k-point 15 :  -.3125-.43750.0625  plane waves:   7722
 k-point 16 :  0.18750.18750.1875  plane waves:   7701
 k-point 17 :  0.31250.18750.1875  plane waves:   7682
 k-point 18 :  -.18750.18750.1875  plane waves:   7719
 k-point 19 :  -.31250.31250.1875  plane waves:   7731
 k-point 20 :  -.43750.43750.1875  plane waves:   7723
 k-point 21 :  -.31250.43750.1875  plane waves:   7719
 k-point 22 :  -.4375-.43750.1875  plane waves:   7714
 k-point 23 :  -.31250.31250.3125  plane waves:   7728
 k-point 24 :  -.43750.43750.3125  plane waves:   7725
 k-point 25 :  -.4375-.43750.3125  plane waves:   7719
 k-point 26 :  -.43750.43750.4375  plane waves:   7688

 maximum and minimum number of plane-waves per node :    996   938

 maximum number of plane-waves:   7763
 maximal index in each direction: 
   IXMAX= 13   IYMAX= 13   IZMAX= 13
   IXMIN=-13   IYMIN=-13   IZMIN=-13

 NGX is ok and might be reduce to  54
 NGY is ok and might be reduce to  54
 NGZ is ok and might be reduce to  54

 parallel 3dFFT wavefunction:
    minimum data exchange during FFTs selected (reduces bandwidth)
 parallel 3dFFT charge:
    minimum data exchange during FFTs selected (reduces bandwidth)

 For storing wavefunctions  552.32 MBYTES are necessary
 For predicting wavefunctions   45.90 MBYTES are necessary
Broyden mixing: mesh for mixing (old mesh)
   NGX = 27   NGY = 27   NGZ = 27
  (NGX  = 80   NGY  = 80   NGZ  = 80)
 gives a total of  19683 points
 initial charge density was supplied:
 charge density of overlapping atoms calculated
 number of electron  224.0000000 magnetization 
 keeping initial charge density in first step


--------------------------------------------------------------------------------------------------------


 Maximum index for augmentation-charges          530 (set IRDMAX)


--------------------------------------------------------------------------------------------------------


 First call to EWALD:  gamma=   0.220
 Maximum number of real-space cells 3x 3x 3
 Maximum number of reciprocal cells 3x 3x 3

    FEWALD:  VPU time    0.01: CPU time    0.01


----------------------------------------- Iteration    1(   1)  ---------------------------------------


    POTLOK:  VPU time    0.13: CPU time    0.13
    SETDIJ:  VPU time    0.03: CPU time    0.03
    EDDAV :  VPU time   66.76: CPU time   67.20
 BZINTS: Fermi energy: 12.459525;224.000000 electrons
         Band energy:1193.720940;  BLOECHL correction: -0.025052
    DOS   :  VPU time    0.00: CPU time   -0.00
    ------------------------------------------
      LOOP:  VPU time   67.52: CPU time   68.23

 eigenvalue-minimisations  :  8944
 total energy-change (2. order) : 0.1662468E+04  (-0.8211137E+04)
 number of electron  224.0000000 magnetization 
 augmentation part   224.0000000 magnetization 

 Free energy of the ion-electron system (eV)
  ---------------------------------------------------
  alpha Z        PSCENC =      1328.65408742
  Ewald energy   TEWEN  =    -15397.99799702
  -1/2 Hartree   DENC   =     -4710.47801403
  -V(xc)+E(xc)   XCENC  =       -77.15816154
  PAW double counting   =     14281.06205413   -13163.82235335
  entropy T*S    EENTRO =         0.00000000
  eigenvalues    EBANDS =      1193.72093960
  atomic energy  EATOM  =     18208.48778806
  ---------------------------------------------------
  free energy    TOTEN  =      1662.46834328 eV

  energy without entropy =     1662.46834328  energy(sigma->0) =     1662.46834328


--------------------------------------------------------------------------------------------------------




----------------------------------------- Iteration    1(   2)  ---------------------------------------


    EDDAV :  VPU time   69.27: CPU time   69.40
 BZINTS: Fermi energy:  2.917521;224.000000 electrons
         Band energy:-410.568484;  BLOECHL correction:  0.000000
    DOS   :  VPU time    0.00: CPU time   -0.00
    ------------------------------------------
      LOOP:  VPU time   69.67: CPU time   70.00

 eigenvalue-minimisations  :  9520
 total energy-change (2. order) :-0.1604289E+04  (-0.1483543E+04)
 number of electron  224.0000000 magnetization 
 augmentation part   224.0000000 magnetization 

 Free energy of the ion-electron system (eV)
  ---------------------------------------------------
  alpha Z        PSCENC =      1328.65408742
  Ewald energy   TEWEN  =    -15397.99799702
  -1/2 Hartree   DENC   =     -4710.47801403
  -V(xc)+E(xc)   XCENC  =       -77.15816154
  PAW double counting   =     14281.06205413   -13163.82235335
  entropy T*S    EENTRO =         0.00000000
  eigenvalues    EBANDS =      -410.56848369
  atomic energy  EATOM  =     18208.48778806
  ---------------------------------------------------
  free energy    TOTEN  =        58.17891999 eV

  energy without entropy =       58.17891999  energy(sigma->0) =       58.17891999


--------------------------------------------------------------------------------------------------------




----------------------------------------- Iteration    1(   3)  ---------------------------------------


    EDDAV :  VPU time   74.56: CPU time   74.69
 BZINTS: Fermi energy:  2.065163;224.000000 electrons
         Band energy:-512.420663;  BLOECHL correction:  0.000000
    DOS   :  VPU time    0.00: CPU time   -0.00
    ------------------------------------------
      LOOP:  VPU time   74.86: CPU time   75.23

 eigenvalue-minimisations  : 10184
 total energy-change (2. order) :-0.1018522E+03  (-0.1003965E+03)
 number of electron  224.0000000 magnetization 
 augmentation part   224.0000000 magnetization 

 Free energy of the ion-electron system (eV)
  ---------------------------------------------------
  alpha Z        PSCENC =      1328.65408742
  Ewald energy   TEWEN  =    -15397.99799702
  -1/2 Hartree   DENC   =     -4710.47801403
  -V(xc)+E(xc)   XCENC  =       -77.15816154
  PAW double counting   =     14281.06205413   -13163.82235335
  entropy T*S    EENTRO =         0.00000000
  eigenvalues    EBANDS =      -512.42066262
  atomic energy  EATOM  =     18208.48778806
  ---------------------------------------------------
  free energy    TOTEN  =       -43.67325894 eV

  energy without entropy =      -43.67325894  energy(sigma->0) =      -43.67325894


--------------------------------------------------------------------------------------------------------




----------------------------------------- Iteration    1(   4)  ---------------------------------------


    EDDAV :  VPU time   82.84: CPU time   83.00
 BZINTS: Fermi energy:  2.063288;224.000000 electrons
         Band energy:-513.358890;  BLOECHL correction:  0.000000
    DOS   :  VPU time    0.00: CPU time   -0.00
    ------------------------------------------
      LOOP:  VPU time   83.22: CPU time   83.78

 eigenvalue-minimisations  :  9816
 total energy-change (2. order) :-0.9382273E+00  (-0.9363145E+00)
 number of electron  224.0000000 magnetization 
 augmentation part   224.0000000 magnetization 

 Free energy of the ion-electron system (eV)
  ---------------------------------------------------
  alpha Z        PSCENC =      1328.65408742
  Ewald energy   TEWEN  =    -15397.99799702
  -1/2 Hartree   DENC   =     -4710.47801403
  -V(xc)+E(xc)   XCENC  =       -77.15816154
  PAW double counting   =     14281.06205413   -13163.82235335
  entropy T*S    EENTRO =         0.00000000
  eigenvalues    EBANDS =      -513.35888993
  atomic energy  EATOM  =     18208.48778806
  ---------------------------------------------------
  free energy    TOTEN  =       -44.61148625 eV

  energy without entropy =      -44.61148625  energy(sigma->0) =      -44.61148625


--------------------------------------------------------------------------------------------------------




----------------------------------------- Iteration    1(   5)  ---------------------------------------


    EDDAV :  VPU time   97.27: CPU time   97.47
 BZINTS: Fermi energy:  2.063288;224.000000 electrons
         Band energy:-513.362454;  BLOECHL correction:  0.000000
    DOS   :  VPU time    0.00: CPU time   -0.00
    CHARGE:  VPU time    2.32: CPU time    2.33
    MIXING:  VPU time    0.00: CPU time    0.01
    ------------------------------------------
      LOOP:  VPU time  100.03: CPU time  100.45

 eigenvalue-minimisations  :  9912
 total energy-change (2. order) :-0.3564351E-02  (-0.3564084E-02)
 number of electron  223.9999539 magnetization 
 augmentation part    70.3828717 magnetization 

 Broyden mixing:
  rms(total) = 0.75590E+00    rms(broyden)= 0.75570E+00
  rms(prec ) = 0.12673E+01
  weight for this iteration     100.00

 Free energy of the ion-electron system (eV)
  ---------------------------------------------------
  alpha Z        PSCENC =      1328.65408742
  Ewald energy   TEWEN  =    -15397.99799702
  -1/2 Hartree   DENC   =     -4710.47801403
  -V(xc)+E(xc)   XCENC  =       -77.15816154
  PAW double counting   =     14281.06205413   -13163.82235335
  entropy T*S    EENTRO =         0.00000000
  eigenvalues    EBANDS =      -513.36245428
  atomic energy  EATOM  =     18208.48778806
  ---------------------------------------------------
  free energy    TOTEN  =       -44.61505060 eV

  energy without entropy =      -44.61505060  energy(sigma->0) =      -44.61505060


--------------------------------------------------------------------------------------------------------




----------------------------------------- Iteration    1(   6)  ---------------------------------------


    POTLOK:  VPU time    0.30: CPU time    0.30
    SETDIJ:  VPU time    0.08: CPU time    0.08
    EDDAV :  VPU time  116.13: CPU time  116.35
 BZINTS: Fermi energy:  2.183312;224.000000 electrons
         Band energy:-566.565006;  BLOECHL correction:  0.000000
    DOS   :  VPU time    0.00: CPU time   -0.00
    CHARGE:  VPU time    2.87: CPU time    2.87
    MIXING:  VPU time    0.00: CPU time    0.00
    ------------------------------------------
      LOOP:  VPU time  119.78: CPU time  120.35

 eigenvalue-minimisations  : 10964
 total energy-change (2. order) : 0.1490901E+01  (-0.2836737E+00)
 number of electron  223.9999537 magnetization 
 augmentation part    71.5152955 magnetization 

 Broyden mixing:
  rms(total) = 0.23722E+00    rms(broyden)= 0.23720E+00
  rms(prec ) = 0.35532E+00
  weight for this iteration     100.00

 eigenvalues of (default mixing * dielectric matrix)
  average eigenvalue GAMMA=   1.2280
  1.2280

 Free energy of the ion-electron system (eV)
  ---------------------------------------------------
  alpha Z        PSCENC =      1328.65408742
  Ewald energy   TEWEN  =    -15397.99799702
  -1/2 Hartree   DENC   =     -4656.23655743
  -V(xc)+E(xc)   XCENC  =       -78.19602029
  PAW double counting   =     14445.11726678   -13326.38771051
  entropy T*S    EENTRO =         0.00000000
  eigenvalues    EBANDS =      -566.56500628
  atomic energy  EATOM  =     18208.48778806
  ---------------------------------------------------
  free energy    TOTEN  =       -43.12414926 eV

  energy without entropy =      -43.12414926  energy(sigma->0) =      -43.12414926


--------------------------------------------------------------------------------------------------------




----------------------------------------- Iteration    1(   7)  ---------------------------------------


    POTLOK:  VPU time    0.15: CPU time    0.15
    SETDIJ:  VPU time    0.03: CPU time    0.03
    EDDAV :  VPU time   77.80: CPU time   77.97
 BZINTS: Fermi energy:  2.213318;224.000000 electrons
         Band energy:-568.662700;  BLOECHL correction:  0.000000
    DOS   :  VPU time    0.00: CPU time   -0.00
    CHARGE:  VPU time    2.12: CPU time    2.13
    MIXING:  VPU time    0.00: CPU time    0.00
    ------------------------------------------
      LOOP:  VPU time   80.50: CPU time   80.99

 eigenvalue-minimisations  :  9528
 total energy-change (2. order) :-0.6798674E-01  (-0.1113548E+00)
 number of electron  223.9999536 magnetization 
 augmentation part    71.7472266 magnetization 

 Broyden mixing:
  rms(total) = 0.14544E+00    rms(broyden)= 0.14543E+00
  rms(prec ) = 0.20479E+00
  weight for this iteration     100.00

 eigenvalues of (default mixing * dielectric matrix)
  average eigenvalue GAMMA=   1.3891
  0.9826  1.7957

 Free energy of the ion-electron system (eV)
  ---------------------------------------------------
  alpha Z        PSCENC =      1328.65408742
  Ewald energy   TEWEN  =    -15397.99799702
  -1/2 Hartree   DENC   =     -4655.21306699
  -V(xc)+E(xc)   XCENC  =       -77.93980145
  PAW double counting   =     14625.10331811   -13505.62376379
  entropy T*S    EENTRO =         0.00000000
  eigenvalues    EBANDS =      -568.66270036
  atomic energy  EATOM  =     18208.48778806
  ---------------------------------------------------
  free energy    TOTEN  =       -43.19213600 eV

  energy without entropy =      -43.19213600  energy(sigma->0) =      -43.19213600


--------------------------------------------------------------------------------------------------------




----------------------------------------- Iteration    1(   8)  ---------------------------------------


    POTLOK:  VPU time    0.24: CPU time    0.24
    SETDIJ:  VPU time    0.04: CPU time    0.04
    EDDAV :  VPU time  100.75: CPU time  100.93
 BZINTS: Fermi energy:  2.213318;224.000000 electrons
         Band energy:-563.262803;  BLOECHL correction:  0.000000
    DOS   :  VPU time    0.00: CPU time   -0.00
    CHARGE:  VPU time    2.16: CPU time    2.16
    MIXING:  VPU time    0.00: CPU time    0.00
    ------------------------------------------
      LOOP:  VPU time  103.52: CPU time  103.98

 eigenvalue-minimisations  :  9952
 total energy-change (2. order) :-0.9484381E-02  (-0.9367055E-02)
 number of electron  223.9999537 magnetization 
 augmentation part    71.6282223 magnetization 

 Broyden mixing:
  rms(total) = 0.66963E-01    rms(broyden)= 0.66958E-01
  rms(prec ) = 0.91840E-01
  weight for this iteration     100.00

 eigenvalues of (default mixing * dielectric matrix)
  average eigenvalue GAMMA=   1.5047
  2.5814  0.9663  0.9663

 Free energy of the ion-electron system (eV)
  ---------------------------------------------------
  alpha Z        PSCENC =      1328.65408742
  Ewald energy   TEWEN  =    -15397.99799702
  -1/2 Hartree   DENC   =     -4662.00316254
  -V(xc)+E(xc)   XCENC  =       -77.48145622
  PAW double counting   =     14783.87082835   -13663.46890537
  entropy T*S    EENTRO =         0.00000000
  eigenvalues    EBANDS =      -563.26280307
  atomic energy  EATOM  =     18208.48778806
  ---------------------------------------------------
  free energy    TOTEN  =       -43.20162038 eV

  energy without entropy =      -43.20162038  energy(sigma->0) =      -43.20162038


--------------------------------------------------------------------------------------------------------




----------------------------------------- Iteration    1(   9)  ---------------------------------------


    POTLOK:  VPU time    0.22: CPU time    0.22
    SETDIJ:  VPU time    0.04: CPU time    0.04
    EDDAV :  VPU time   78.06: CPU time   78.22
 BZINTS: Fermi energy:  2.228321;224.000000 electrons
         Band energy:-565.377241;  BLOECHL correction:  0.000000
    DOS   :  VPU time    0.00: CPU time   -0.00
    CHARGE:  VPU time    2.24: CPU time    2.24
    MIXING:  VPU time    0.01: CPU time    0.00
    ------------------------------------------
      LOOP:  VPU time   80.96: CPU time   81.34

 eigenvalue-minimisations  :  9568
 total energy-change (2. order) :-0.6085684E-02  (-0.1471783E-02)
 number of electron  223.9999537 magnetization 
 augmentation part    71.6628590 magnetization 

 Broyden mixing:
  rms(total) = 0.11109E-01    rms(broyden)= 0.11102E-01
  rms(prec ) = 0.16119E-01
  weight for this iteration     100.00

 eigenvalues of (default mixing * dielectric matrix)
  average eigenvalue GAMMA=   1.4528
  2.5873  0.9812  0.9812  1.2614

 Free energy of the ion-electron system (eV)
  ---------------------------------------------------
  alpha Z        PSCENC =      1328.65408742
  Ewald energy   TEWEN  =    -15397.99799702
  -1/2 Hartree   DENC   =     -4661.26057729
  -V(xc)+E(xc)   XCENC  =       -77.31424494
  PAW double counting   =     14875.11345207   -13753.51297354
  entropy T*S    EENTRO =         0.00000000
  eigenvalues    EBANDS =      -565.37724083
  atomic energy  EATOM  =     18208.48778806
  ---------------------------------------------------
  free energy    TOTEN  =       -43.20770607 eV

  energy without entropy =      -43.20770607  energy(sigma->0) =      -43.20770607


--------------------------------------------------------------------------------------------------------




----------------------------------------- Iteration    1(  10)  ---------------------------------------


    POTLOK:  VPU time    0.48: CPU time    0.48
    SETDIJ:  VPU time    0.14: CPU time    0.14
    EDDAV :  VPU time   92.74: CPU time   94.60
 BZINTS: Fermi energy:  2.228321;224.000000 electrons
         Band energy:-565.362087;  BLOECHL correction:  0.000000
    DOS   :  VPU time    0.00: CPU time   -0.00
    CHARGE:  VPU time    2.22: CPU time    2.22
    MIXING:  VPU time    0.00: CPU time    0.00
    ------------------------------------------
      LOOP:  VPU time   95.97: CPU time   98.07

 eigenvalue-minimisations  :  9728
 total energy-change (2. order) :-0.6093253E-03  (-0.1845875E-03)
 number of electron  223.9999537 magnetization 
 augmentation part    71.6614826 magnetization 

 Broyden mixing:
  rms(total) = 0.70547E-02    rms(broyden)= 0.70524E-02
  rms(prec ) = 0.93562E-02
  weight for this iteration     100.00

 eigenvalues of (default mixing * dielectric matrix)
  average eigenvalue GAMMA=   1.6539
  2.9055  2.4578  0.9940  0.9940  0.9181

 Free energy of the ion-electron system (eV)
  ---------------------------------------------------
  alpha Z        PSCENC =      1328.65408742
  Ewald energy   TEWEN  =    -15397.99799702
  -1/2 Hartree   DENC   =     -4661.64868650
  -V(xc)+E(xc)   XCENC  =       -77.28281308
  PAW double counting   =     14879.75105592   -13757.80966295
  entropy T*S    EENTRO =         0.00000000
  eigenvalues    EBANDS =      -565.36208725
  atomic energy  EATOM  =     18208.48778806
  ---------------------------------------------------
  free energy    TOTEN  =       -43.20831539 eV

  energy without entropy =      -43.20831539  energy(sigma->0) =      -43.20831539


--------------------------------------------------------------------------------------------------------




----------------------------------------- Iteration    1(  11)  ---------------------------------------


    POTLOK:  VPU time    0.16: CPU time    0.16
    SETDIJ:  VPU time    0.04: CPU time    0.04
    EDDAV :  VPU time   69.34: CPU time   69.47
 BZINTS: Fermi energy:  2.228321;224.000000 electrons
         Band energy:-565.289476;  BLOECHL correction:  0.000000
    DOS   :  VPU time    0.00: CPU time   -0.00
    CHARGE:  VPU time    1.97: CPU time    1.98
    MIXING:  VPU time    0.00: CPU time    0.00
    ------------------------------------------
      LOOP:  VPU time   71.91: CPU time   72.36

 eigenvalue-minimisations  :  7464
 total energy-change (2. order) :-0.2339690E-03  (-0.2422803E-04)
 number of electron  223.9999537 magnetization 
 augmentation part    71.6620231 magnetization 

 Broyden mixing:
  rms(total) = 0.14483E-02    rms(broyden)= 0.14477E-02
  rms(prec ) = 0.25334E-02
  weight for this iteration     100.00

 eigenvalues of (default mixing * dielectric matrix)
  average eigenvalue GAMMA=   1.5500
  2.7995  2.4031  1.2372  1.0142  1.0142  0.8320

 Free energy of the ion-electron system (eV)
  ---------------------------------------------------
  alpha Z        PSCENC =      1328.65408742
  Ewald energy   TEWEN  =    -15397.99799702
  -1/2 Hartree   DENC   =     -4662.14538791
  -V(xc)+E(xc)   XCENC  =       -77.25618914
  PAW double counting   =     14882.36756795   -13760.02894253
  entropy T*S    EENTRO =         0.00000000
  eigenvalues    EBANDS =      -565.28947621
  atomic energy  EATOM  =     18208.48778806
  ---------------------------------------------------
  free energy    TOTEN  =       -43.20854936 eV

  energy without entropy =      -43.20854936  energy(sigma->0) =      -43.20854936


--------------------------------------------------------------------------------------------------------




----------------------------------------- Iteration    1(  12)  ---------------------------------------


    POTLOK:  VPU time    0.39: CPU time    0.39
    SETDIJ:  VPU time    0.06: CPU time    0.06
    EDDAV :  VPU time   72.86: CPU time   72.98
 BZINTS: Fermi energy:  2.228321;224.000000 electrons
         Band energy:-565.144273;  BLOECHL correction:  0.000000
    DOS   :  VPU time    0.00: CPU time   -0.00
    ------------------------------------------
      LOOP:  VPU time   73.73: CPU time   74.13

 eigenvalue-minimisations  :  5880
 total energy-change (2. order) :-0.1851138E-05  (-0.2840479E-05)
 number of electron  223.9999537 magnetization 
 augmentation part    71.6620231 magnetization 

 Free energy of the ion-electron system (eV)
  ---------------------------------------------------
  alpha Z        PSCENC =      1328.65408742
  Ewald energy   TEWEN  =    -15397.99799702
  -1/2 Hartree   DENC   =     -4662.35081251
  -V(xc)+E(xc)   XCENC  =       -77.24964714
  PAW double counting   =     14882.00817230   -13759.61586924
  entropy T*S    EENTRO =         0.00000000
  eigenvalues    EBANDS =      -565.14427309
  atomic energy  EATOM  =     18208.48778806
  ---------------------------------------------------
  free energy    TOTEN  =       -43.20855121 eV

  energy without entropy =      -43.20855121  energy(sigma->0) =      -43.20855121


--------------------------------------------------------------------------------------------------------




 average (electrostatic) potential at core
  the test charge radii are     1.1249  1.2098  1.0808
  (the norm of the test charge is              1.0000)
       1 -40.4745       2 -40.4745       3 -40.4745       4 -40.4745       5 -40.4745
       6 -40.4745       7 -40.4745       8 -40.4745       9 -40.4745      10 -40.4745
      11 -40.4745      12 -40.4745      13 -47.7192      14 -47.7192      15 -47.7192
      16 -47.7192      17 -55.7444      18 -55.7444      19 -55.7444      20 -55.7444
      21 -55.7444      22 -55.7444      23 -55.7444      24 -55.7444
 
 
 
 E-fermi :   2.2283     XC(G=0): -10.4134     alpha+bet : -8.0075
   add alpha+bet to get absolut eigen values

 k-point   1 :       0.0625    0.0625    0.0625
  band No.  band energies     occupation 
      1     -10.6465      2.00000
      2     -10.3703      2.00000
      3     -10.3551      2.00000
      4     -10.3421      2.00000
      5     -10.0706      2.00000
      6     -10.0487      2.00000
      7     -10.0397      2.00000
      8      -9.9504      2.00000
      9      -3.7545      2.00000
     10      -3.6902      2.00000
     11      -3.6747      2.00000
     12      -3.6515      2.00000
     13      -3.6309      2.00000
     14      -3.6123      2.00000
     15      -3.6069      2.00000
     16      -3.5825      2.00000
     17      -3.5776      2.00000
     18      -3.5766      2.00000
     19      -3.5568      2.00000
     20      -3.5075      2.00000
     21      -3.5052      2.00000
     22      -3.4968      2.00000
     23      -3.2517      2.00000
     24      -3.2317      2.00000
     25      -3.2242      2.00000
     26      -3.1997      2.00000
     27      -3.1687      2.00000
     28      -3.1556      2.00000
     29      -3.1421      2.00000
     30      -3.1110      2.00000
     31      -3.0388      2.00000
     32      -3.0366      2.00000
     33      -2.9649      2.00000
     34      -2.9518      2.00000
     35      -2.9399      2.00000
     36      -2.9134      2.00000
     37      -2.8881      2.00000
     38      -2.8395      2.00000
     39      -2.8361      2.00000
     40      -2.8148      2.00000
     41      -2.8026      2.00000
     42      -2.7818      2.00000
     43      -2.7774      2.00000
     44      -2.7524      2.00000
     45      -2.7221      2.00000
     46      -2.6941      2.00000
     47      -2.6705      2.00000
     48      -2.6564      2.00000
     49      -2.6361      2.00000
     50      -2.6157      2.00000
     51      -2.5891      2.00000
     52      -2.5840      2.00000
     53      -2.5534      2.00000
     54      -2.5420      2.00000
     55      -2.5405      2.00000
     56      -2.5240      2.00000
     57      -2.4825      2.00000
     58      -2.4791      2.00000
     59      -2.4413      2.00000
     60      -2.3793      2.00000
     61      -2.3698      2.00000
     62      -2.3439      2.00000
     63      -2.3006      2.00000
     64      -2.2911      2.00000
     65      -2.2883      2.00000
     66      -2.2687      2.00000
     67      -2.2573      2.00000
     68      -2.2183      2.00000
     69      -2.2132      2.00000
     70      -2.2068      2.00000
     71      -2.1963      2.00000
     72      -2.1764      2.00000
     73      -2.1702      2.00000
     74      -2.1539      2.00000
     75      -1.8968      2.00000
     76      -1.8931      2.00000
     77      -1.8768      2.00000
     78      -1.7988      2.00000
     79      -1.7923      2.00000
     80      -1.7639      2.00000
     81      -1.7139      2.00000
     82      -1.6911      2.00000
     83      -1.6366      2.00000
     84      -1.5809      2.00000
     85      -1.5754      2.00000
     86      -1.5513      2.00000
     87      -1.4356      2.00000
     88      -1.4195      2.00000
     89      -1.3930      2.00000
     90      -1.3485      2.00000
     91      -1.3168      2.00000
     92      -1.2488      2.00000
     93      -0.9777      2.00000
     94      -0.9441      2.00000
     95       0.2472      2.00000
     96       0.3528      2.00000
     97       0.5185      2.00000
     98       0.6943      2.00000
     99       0.8378      2.00000
    100       0.8694      2.00000
    101       0.9498      2.00000
    102       0.9958      2.00000
    103       1.0817      2.00000
    104       1.2696      2.00000
    105       1.3556      2.00000
    106       1.4696      2.00000
    107       1.5146      2.00000
    108       1.7300      2.00000
    109       1.8986      2.00000
    110       1.9676      2.00000
    111       2.1736      2.00000
    112       2.1767      2.00000
    113       3.0054      0.00000
    114       3.6114      0.00000
    115       3.6703      0.00000
    116       3.7807      0.00000
    117       3.8505      0.00000
    118       3.8906      0.00000
    119       4.3512      0.00000
    120       4.4721      0.00000
    121       4.5777      0.00000
    122       5.6396      0.00000
    123       5.9991      0.00000
    124       6.1300      0.00000
    125       6.3813      0.00000
    126       6.9239      0.00000
    127       6.9595      0.00000
    128       7.6000      0.00000
    129       7.9751      0.00000
    130       8.2839      0.00000
    131       8.3695      0.00000
    132       8.5785      0.00000
    133       8.6352      0.00000
    134       8.6884      0.00000
    135       8.9051      0.00000
    136       9.1316      0.00000
    137       9.1489      0.00000
    138       9.5145      0.00000
    139       9.5901      0.00000
    140       9.7054      0.00000
    141       9.8322      0.00000
    142      10.0257      0.00000
    143      10.1609      0.00000
    144      10.1882      0.00000
    145      10.2914      0.00000
    146      10.3181      0.00000
    147      10.5195      0.00000
    148      10.8389      0.00000
    149      10.9487      0.00000
    150      11.0321      0.00000
    151      11.0723      0.00000
    152      11.3565      0.00000
    153      11.3596      0.00000
    154      11.4848      0.00000
    155      11.5923      0.00000
    156      11.6317      0.00000
    157      11.8521      0.00000
    158      11.8799      0.00000
    159      12.0645      0.00000
    160      12.1185      0.00000
    161      12.2012      0.00000
    162      12.5273      0.00000
    163      12.5831      0.00000
    164      13.0132      0.00000
    165      13.0260      0.00000
    166      13.2125      0.00000
    167      13.5123      0.00000
    168      13.6826      0.00000
    169      13.7700      0.00000
    170      13.8781      0.00000
    171      13.8853      0.00000
    172      14.0410      0.00000

 k-point   2 :       0.1875    0.0625    0.0625
  band No.  band energies     occupation 
      1     -10.6027      2.00000
      2     -10.3840      2.00000
      3     -10.3563      2.00000
      4     -10.3201      2.00000
      5     -10.1116      2.00000
      6     -10.0559      2.00000
      7     -10.0385      2.00000
      8      -9.9725      2.00000
      9      -3.7143      2.00000
     10      -3.6912      2.00000
     11      -3.6787      2.00000
     12      -3.6482      2.00000
     13      -3.6219      2.00000
     14      -3.6099      2.00000
     15      -3.5837      2.00000
     16      -3.5560      2.00000
     17      -3.5483      2.00000
     18      -3.5280      2.00000
     19      -3.4994      2.00000
     20      -3.4804      2.00000
     21      -3.4597      2.00000
     22      -3.4340      2.00000
     23      -3.3366      2.00000
     24      -3.3090      2.00000
     25      -3.2333      2.00000
     26      -3.1761      2.00000
     27      -3.1579      2.00000
     28      -3.1423      2.00000
     29      -3.1144      2.00000
     30      -3.1034      2.00000
     31      -3.0749      2.00000
     32      -3.0358      2.00000
     33      -3.0034      2.00000
     34      -2.9735      2.00000
     35      -2.9680      2.00000
     36      -2.9336      2.00000
     37      -2.9091      2.00000
     38      -2.8862      2.00000
     39      -2.8757      2.00000
     40      -2.8606      2.00000
     41      -2.8363      2.00000
     42      -2.8209      2.00000
     43      -2.8031      2.00000
     44      -2.7524      2.00000
     45      -2.7342      2.00000
     46      -2.7015      2.00000
     47      -2.6832      2.00000
     48      -2.6551      2.00000
     49      -2.6286      2.00000
     50      -2.5890      2.00000
     51      -2.5798      2.00000
     52      -2.5729      2.00000
     53      -2.5458      2.00000
     54      -2.5382      2.00000
     55      -2.5324      2.00000
     56      -2.5119      2.00000
     57      -2.4785      2.00000
     58      -2.4734      2.00000
     59      -2.4563      2.00000
     60      -2.3887      2.00000
     61      -2.3817      2.00000
     62      -2.3759      2.00000
     63      -2.3358      2.00000
     64      -2.3101      2.00000
     65      -2.3045      2.00000
     66      -2.2589      2.00000
     67      -2.2531      2.00000
     68      -2.2254      2.00000
     69      -2.1994      2.00000
     70      -2.1900      2.00000
     71      -2.1685      2.00000
     72      -2.1104      2.00000
     73      -2.0892      2.00000
     74      -2.0734      2.00000
     75      -1.9878      2.00000
     76      -1.9095      2.00000
     77      -1.9007      2.00000
     78      -1.8507      2.00000
     79      -1.8111      2.00000
     80      -1.7687      2.00000
     81      -1.7093      2.00000
     82      -1.6668      2.00000
     83      -1.5993      2.00000
     84      -1.5746      2.00000
     85      -1.5595      2.00000
     86      -1.4891      2.00000
     87      -1.4348      2.00000
     88      -1.3757      2.00000
     89      -1.3488      2.00000
     90      -1.2832      2.00000
     91      -1.1811      2.00000
     92      -1.0851      2.00000
     93      -0.8936      2.00000
     94      -0.7138      2.00000
     95      -0.0207      2.00000
     96       0.2532      2.00000
     97       0.3590      2.00000
     98       0.5110      2.00000
     99       0.6364      2.00000
    100       0.6656      2.00000
    101       0.8273      2.00000
    102       0.9363      2.00000
    103       0.9595      2.00000
    104       1.1211      2.00000
    105       1.2059      2.00000
    106       1.3395      2.00000
    107       1.4061      2.00000
    108       1.6415      2.00000
    109       1.8148      2.00000
    110       1.9175      2.00000
    111       2.0110      2.00000
    112       2.1601      2.00000
    113       3.3553      0.00000
    114       3.8737      0.00000
    115       4.1215      0.00000
    116       4.1405      0.00000
    117       4.2310      0.00000
    118       4.3334      0.00000
    119       4.5452      0.00000
    120       4.7476      0.00000
    121       4.9508      0.00000
    122       5.8314      0.00000
    123       6.0374      0.00000
    124       6.2039      0.00000
    125       6.6778      0.00000
    126       6.7385      0.00000
    127       6.9054      0.00000
    128       7.1628      0.00000
    129       7.5806      0.00000
    130       7.8814      0.00000
    131       8.0408      0.00000
    132       8.1147      0.00000
    133       8.3054      0.00000
    134       8.4528      0.00000
    135       8.5976      0.00000
    136       8.7985      0.00000
    137       9.0176      0.00000
    138       9.2297      0.00000
    139       9.5580      0.00000
    140       9.6580      0.00000
    141       9.7040      0.00000
    142       9.8172      0.00000
    143      10.0366      0.00000
    144      10.2223      0.00000
    145      10.3107      0.00000
    146      10.3462      0.00000
    147      10.6982      0.00000
    148      10.7873      0.00000
    149      10.9464      0.00000
    150      11.1275      0.00000
    151      11.3636      0.00000
    152      11.4672      0.00000
    153      11.5657      0.00000
    154      11.7166      0.00000
    155      11.7327      0.00000
    156      11.9114      0.00000
    157      12.0193      0.00000
    158      12.1342      0.00000
    159      12.1854      0.00000
    160      12.4876      0.00000
    161      12.6379      0.00000
    162      12.7481      0.00000
    163      12.9186      0.00000
    164      12.9492      0.00000
    165      13.0612      0.00000
    166      13.1376      0.00000
    167      13.4202      0.00000
    168      13.5470      0.00000
    169      13.7273      0.00000
    170      13.7679      0.00000
    171      13.8862      0.00000
    172      13.9762      0.00000

 k-point   3 :       0.3125    0.0625    0.0625
  band No.  band energies     occupation 
      1     -10.5396      2.00000
      2     -10.4139      2.00000
      3     -10.3517      2.00000
      4     -10.3040      2.00000
      5     -10.1468      2.00000
      6     -10.0731      2.00000
      7     -10.0327      2.00000
      8      -9.9975      2.00000
      9      -3.7229      2.00000
     10      -3.6844      2.00000
     11      -3.6668      2.00000
     12      -3.6307      2.00000
     13      -3.6131      2.00000
     14      -3.5891      2.00000
     15      -3.5674      2.00000
     16      -3.5130      2.00000
     17      -3.4977      2.00000
     18      -3.4827      2.00000
     19      -3.4756      2.00000
     20      -3.4396      2.00000
     21      -3.4078      2.00000
     22      -3.3997      2.00000
     23      -3.3721      2.00000
     24      -3.3165      2.00000
     25      -3.2463      2.00000
     26      -3.2267      2.00000
     27      -3.1465      2.00000
     28      -3.1362      2.00000
     29      -3.1125      2.00000
     30      -3.0992      2.00000
     31      -3.0582      2.00000
     32      -3.0448      2.00000
     33      -3.0174      2.00000
     34      -3.0117      2.00000
     35      -2.9814      2.00000
     36      -2.9594      2.00000
     37      -2.9471      2.00000
     38      -2.9379      2.00000
     39      -2.9130      2.00000
     40      -2.8836      2.00000
     41      -2.8727      2.00000
     42      -2.8366      2.00000
     43      -2.8147      2.00000
     44      -2.7722      2.00000
     45      -2.7340      2.00000
     46      -2.7197      2.00000
     47      -2.6987      2.00000
     48      -2.6537      2.00000
     49      -2.6303      2.00000
     50      -2.6204      2.00000
     51      -2.6095      2.00000
     52      -2.5937      2.00000
     53      -2.5570      2.00000
     54      -2.5211      2.00000
     55      -2.5079      2.00000
     56      -2.4851      2.00000
     57      -2.4682      2.00000
     58      -2.4464      2.00000
     59      -2.4289      2.00000
     60      -2.4085      2.00000
     61      -2.3944      2.00000
     62      -2.3839      2.00000
     63      -2.3522      2.00000
     64      -2.3129      2.00000
     65      -2.3082      2.00000
     66      -2.2731      2.00000
     67      -2.2524      2.00000
     68      -2.2273      2.00000
     69      -2.1778      2.00000
     70      -2.1745      2.00000
     71      -2.1544      2.00000
     72      -2.1402      2.00000
     73      -2.0912      2.00000
     74      -2.0418      2.00000
     75      -1.9732      2.00000
     76      -1.9412      2.00000
     77      -1.9004      2.00000
     78      -1.8372      2.00000
     79      -1.8122      2.00000
     80      -1.7564      2.00000
     81      -1.7029      2.00000
     82      -1.6400      2.00000
     83      -1.6208      2.00000
     84      -1.5734      2.00000
     85      -1.5225      2.00000
     86      -1.4467      2.00000
     87      -1.4220      2.00000
     88      -1.3324      2.00000
     89      -1.2184      2.00000
     90      -1.1401      2.00000
     91      -1.0272      2.00000
     92      -0.9441      2.00000
     93      -0.8191      2.00000
     94      -0.4655      2.00000
     95      -0.2434      2.00000
     96       0.0153      2.00000
     97       0.1867      2.00000
     98       0.2882      2.00000
     99       0.3270      2.00000
    100       0.5410      2.00000
    101       0.6998      2.00000
    102       0.8589      2.00000
    103       0.8992      2.00000
    104       0.9858      2.00000
    105       1.0385      2.00000
    106       1.2678      2.00000
    107       1.3238      2.00000
    108       1.6101      2.00000
    109       1.7601      2.00000
    110       1.8313      2.00000
    111       1.9298      2.00000
    112       2.1489      2.00000
    113       3.6480      0.00000
    114       4.1937      0.00000
    115       4.5134      0.00000
    116       4.5546      0.00000
    117       4.6616      0.00000
    118       4.8505      0.00000
    119       4.8913      0.00000
    120       5.0369      0.00000
    121       5.3461      0.00000
    122       5.9621      0.00000
    123       6.0667      0.00000
    124       6.2080      0.00000
    125       6.3760      0.00000
    126       6.7064      0.00000
    127       6.8157      0.00000
    128       6.9122      0.00000
    129       7.1497      0.00000
    130       7.3624      0.00000
    131       7.5439      0.00000
    132       7.7882      0.00000
    133       7.9784      0.00000
    134       8.3426      0.00000
    135       8.4759      0.00000
    136       8.6260      0.00000
    137       8.9173      0.00000
    138       9.2423      0.00000
    139       9.4427      0.00000
    140       9.5197      0.00000
    141       9.6829      0.00000
    142       9.7575      0.00000
    143       9.9834      0.00000
    144      10.1139      0.00000
    145      10.3476      0.00000
    146      10.5056      0.00000
    147      10.7372      0.00000
    148      10.8383      0.00000
    149      10.9221      0.00000
    150      11.0013      0.00000
    151      11.1754      0.00000
    152      11.4335      0.00000
    153      11.6387      0.00000
    154      11.6637      0.00000
    155      11.9081      0.00000
    156      11.9757      0.00000
    157      12.0903      0.00000
    158      12.2518      0.00000
    159      12.3196      0.00000
    160      12.5803      0.00000
    161      12.7236      0.00000
    162      13.0083      0.00000
    163      13.1360      0.00000
    164      13.1981      0.00000
    165      13.3889      0.00000
    166      13.5923      0.00000
    167      13.6515      0.00000
    168      13.7721      0.00000
    169      13.8041      0.00000
    170      13.9207      0.00000
    171      14.0013      0.00000
    172      14.2167      0.00000

 k-point   4 :       0.4375    0.0625    0.0625
  band No.  band energies     occupation 
      1     -10.4844      2.00000
      2     -10.4544      2.00000
      3     -10.3477      2.00000
      4     -10.3018      2.00000
      5     -10.1557      2.00000
      6     -10.0852      2.00000
      7     -10.0263      2.00000
      8     -10.0112      2.00000
      9      -3.7292      2.00000
     10      -3.6958      2.00000
     11      -3.6527      2.00000
     12      -3.6122      2.00000
     13      -3.6024      2.00000
     14      -3.5878      2.00000
     15      -3.5434      2.00000
     16      -3.5222      2.00000
     17      -3.4790      2.00000
     18      -3.4638      2.00000
     19      -3.4510      2.00000
     20      -3.4295      2.00000
     21      -3.4255      2.00000
     22      -3.3813      2.00000
     23      -3.3719      2.00000
     24      -3.2685      2.00000
     25      -3.2573      2.00000
     26      -3.2128      2.00000
     27      -3.1728      2.00000
     28      -3.1359      2.00000
     29      -3.1120      2.00000
     30      -3.0986      2.00000
     31      -3.0654      2.00000
     32      -3.0537      2.00000
     33      -3.0263      2.00000
     34      -3.0097      2.00000
     35      -2.9960      2.00000
     36      -2.9723      2.00000
     37      -2.9651      2.00000
     38      -2.9538      2.00000
     39      -2.8993      2.00000
     40      -2.8945      2.00000
     41      -2.8754      2.00000
     42      -2.8742      2.00000
     43      -2.8266      2.00000
     44      -2.7779      2.00000
     45      -2.7525      2.00000
     46      -2.7374      2.00000
     47      -2.6837      2.00000
     48      -2.6350      2.00000
     49      -2.6343      2.00000
     50      -2.6160      2.00000
     51      -2.6101      2.00000
     52      -2.5997      2.00000
     53      -2.5563      2.00000
     54      -2.5339      2.00000
     55      -2.5221      2.00000
     56      -2.5072      2.00000
     57      -2.4641      2.00000
     58      -2.4446      2.00000
     59      -2.4228      2.00000
     60      -2.4126      2.00000
     61      -2.3941      2.00000
     62      -2.3923      2.00000
     63      -2.3436      2.00000
     64      -2.3301      2.00000
     65      -2.2695      2.00000
     66      -2.2686      2.00000
     67      -2.2537      2.00000
     68      -2.2345      2.00000
     69      -2.1622      2.00000
     70      -2.1583      2.00000
     71      -2.1446      2.00000
     72      -2.1437      2.00000
     73      -2.1116      2.00000
     74      -2.0780      2.00000
     75      -1.9706      2.00000
     76      -1.9314      2.00000
     77      -1.8927      2.00000
     78      -1.8258      2.00000
     79      -1.8143      2.00000
     80      -1.7372      2.00000
     81      -1.6853      2.00000
     82      -1.6620      2.00000
     83      -1.6218      2.00000
     84      -1.5726      2.00000
     85      -1.5079      2.00000
     86      -1.4433      2.00000
     87      -1.4161      2.00000
     88      -1.3181      2.00000
     89      -1.0699      2.00000
     90      -1.0678      2.00000
     91      -0.9415      2.00000
     92      -0.8787      2.00000
     93      -0.8120      2.00000
     94      -0.5173      2.00000
     95      -0.1424      2.00000
     96      -0.1240      2.00000
     97       0.0573      2.00000
     98       0.1798      2.00000
     99       0.3021      2.00000
    100       0.3743      2.00000
    101       0.6616      2.00000
    102       0.7283      2.00000
    103       0.9268      2.00000
    104       0.9323      2.00000
    105       1.0772      2.00000
    106       1.1211      2.00000
    107       1.3354      2.00000
    108       1.6294      2.00000
    109       1.7406      2.00000
    110       1.7831      2.00000
    111       1.9088      2.00000
    112       2.1444      2.00000
    113       3.7633      0.00000
    114       4.3667      0.00000
    115       4.6733      0.00000
    116       4.7088      0.00000
    117       4.8683      0.00000
    118       5.0016      0.00000
    119       5.1778      0.00000
    120       5.4645      0.00000
    121       5.5746      0.00000
    122       5.6127      0.00000
    123       6.0974      0.00000
    124       6.1442      0.00000
    125       6.2862      0.00000
    126       6.5993      0.00000
    127       6.6541      0.00000
    128       6.8205      0.00000
    129       6.9660      0.00000
    130       7.2207      0.00000
    131       7.3673      0.00000
    132       7.6376      0.00000
    133       7.8643      0.00000
    134       8.1996      0.00000
    135       8.5319      0.00000
    136       8.5670      0.00000
    137       8.9895      0.00000
    138       9.3091      0.00000
    139       9.3812      0.00000
    140       9.5127      0.00000
    141       9.5551      0.00000
    142       9.6657      0.00000
    143      10.0796      0.00000
    144      10.1228      0.00000
    145      10.5187      0.00000
    146      10.6401      0.00000
    147      10.6512      0.00000
    148      10.6622      0.00000
    149      10.8271      0.00000
    150      10.8475      0.00000
    151      11.1314      0.00000
    152      11.1385      0.00000
    153      11.6265      0.00000
    154      11.8937      0.00000
    155      11.9523      0.00000
    156      12.0253      0.00000
    157      12.0558      0.00000
    158      12.2485      0.00000
    159      12.4284      0.00000
    160      12.7316      0.00000
    161      12.9944      0.00000
    162      13.0666      0.00000
    163      13.1808      0.00000
    164      13.2146      0.00000
    165      13.3723      0.00000
    166      13.5490      0.00000
    167      13.6457      0.00000
    168      13.9180      0.00000
    169      14.0046      0.00000
    170      14.0998      0.00000
    171      14.1516      0.00000
    172      14.3126      0.00000

 k-point   5 :      -0.0625    0.0625    0.0625
  band No.  band energies     occupation 
      1     -10.6620      2.00000
      2     -10.3617      2.00000
      3     -10.3582      2.00000
      4     -10.3520      2.00000
      5     -10.0493      2.00000
      6     -10.0490      2.00000
      7     -10.0419      2.00000
      8      -9.9420      2.00000
      9      -3.7741      2.00000
     10      -3.6728      2.00000
     11      -3.6721      2.00000
     12      -3.6697      2.00000
     13      -3.6405      2.00000
     14      -3.6331      2.00000
     15      -3.6175      2.00000
     16      -3.5997      2.00000
     17      -3.5918      2.00000
     18      -3.5802      2.00000
     19      -3.5442      2.00000
     20      -3.5299      2.00000
     21      -3.5172      2.00000
     22      -3.5138      2.00000
     23      -3.2416      2.00000
     24      -3.2207      2.00000
     25      -3.1985      2.00000
     26      -3.1821      2.00000
     27      -3.1761      2.00000
     28      -3.1607      2.00000
     29      -3.1523      2.00000
     30      -3.1341      2.00000
     31      -3.0413      2.00000
     32      -2.9800      2.00000
     33      -2.9436      2.00000
     34      -2.9336      2.00000
     35      -2.9304      2.00000
     36      -2.9263      2.00000
     37      -2.9127      2.00000
     38      -2.8331      2.00000
     39      -2.8243      2.00000
     40      -2.8057      2.00000
     41      -2.7674      2.00000
     42      -2.7500      2.00000
     43      -2.7408      2.00000
     44      -2.7243      2.00000
     45      -2.7022      2.00000
     46      -2.6847      2.00000
     47      -2.6777      2.00000
     48      -2.6702      2.00000
     49      -2.6556      2.00000
     50      -2.6347      2.00000
     51      -2.6164      2.00000
     52      -2.5954      2.00000
     53      -2.5806      2.00000
     54      -2.5782      2.00000
     55      -2.5423      2.00000
     56      -2.5388      2.00000
     57      -2.4440      2.00000
     58      -2.4290      2.00000
     59      -2.4134      2.00000
     60      -2.3684      2.00000
     61      -2.3671      2.00000
     62      -2.3177      2.00000
     63      -2.3028      2.00000
     64      -2.2792      2.00000
     65      -2.2770      2.00000
     66      -2.2643      2.00000
     67      -2.2547      2.00000
     68      -2.2529      2.00000
[...]
     50      -2.5741      2.00000
     51      -2.5371      2.00000
     52      -2.5158      2.00000
     53      -2.4966      2.00000
     54      -2.4859      2.00000
     55      -2.4590      2.00000
     56      -2.4455      2.00000
     57      -2.4249      2.00000
     58      -2.4217      2.00000
     59      -2.4203      2.00000
     60      -2.4167      2.00000
     61      -2.4054      2.00000
     62      -2.3734      2.00000
     63      -2.3702      2.00000
     64      -2.3506      2.00000
     65      -2.2961      2.00000
     66      -2.2884      2.00000
     67      -2.2807      2.00000
     68      -2.2565      2.00000
     69      -2.2391      2.00000
     70      -2.2355      2.00000
     71      -2.0880      2.00000
     72      -2.0792      2.00000
     73      -2.0745      2.00000
     74      -2.0666      2.00000
     75      -2.0395      2.00000
     76      -1.8376      2.00000
     77      -1.8325      2.00000
     78      -1.8149      2.00000
     79      -1.8117      2.00000
     80      -1.8084      2.00000
     81      -1.5650      2.00000
     82      -1.5629      2.00000
     83      -1.5532      2.00000
     84      -1.5086      2.00000
     85      -1.5037      2.00000
     86      -1.4733      2.00000
     87      -1.3216      2.00000
     88      -1.2764      2.00000
     89      -1.2413      2.00000
     90      -1.1791      2.00000
     91      -1.1446      2.00000
     92      -0.6205      2.00000
     93      -0.6060      2.00000
     94      -0.5608      2.00000
     95      -0.1420      2.00000
     96      -0.1118      2.00000
     97      -0.0766      2.00000
     98       0.0832      2.00000
     99       0.2145      2.00000
    100       0.3615      2.00000
    101       0.3751      2.00000
    102       0.4346      2.00000
    103       0.5689      2.00000
    104       1.0878      2.00000
    105       1.2005      2.00000
    106       1.2123      2.00000
    107       1.3030      2.00000
    108       1.3315      2.00000
    109       1.4227      2.00000
    110       1.4496      2.00000
    111       1.4615      2.00000
    112       1.5449      2.00000
    113       4.3295      0.00000
    114       4.6945      0.00000
    115       4.8222      0.00000
    116       5.0286      0.00000
    117       5.0339      0.00000
    118       5.0848      0.00000
    119       5.7937      0.00000
    120       6.0444      0.00000
    121       6.1506      0.00000
    122       6.1961      0.00000
    123       6.2791      0.00000
    124       6.5906      0.00000
    125       6.8171      0.00000
    126       6.9043      0.00000
    127       6.9179      0.00000
    128       7.0010      0.00000
    129       7.0058      0.00000
    130       7.2365      0.00000
    131       7.4218      0.00000
    132       7.8765      0.00000
    133       7.8811      0.00000
    134       8.1262      0.00000
    135       8.5649      0.00000
    136       8.6275      0.00000
    137       8.6744      0.00000
    138       8.8643      0.00000
    139       9.0564      0.00000
    140       9.1725      0.00000
    141       9.1749      0.00000
    142       9.5627      0.00000
    143       9.8345      0.00000
    144       9.8453      0.00000
    145      10.1192      0.00000
    146      10.1202      0.00000
    147      10.1695      0.00000
    148      10.2773      0.00000
    149      10.4865      0.00000
    150      10.5723      0.00000
    151      10.5793      0.00000
    152      10.7681      0.00000
    153      10.8185      0.00000
    154      10.8761      0.00000
    155      11.0669      0.00000
    156      11.1200      0.00000
    157      12.0786      0.00000
    158      12.1137      0.00000
    159      12.4557      0.00000
    160      12.7119      0.00000
    161      12.7580      0.00000
    162      12.9024      0.00000
    163      12.9456      0.00000
    164      12.9622      0.00000
    165      12.9641      0.00000
    166      13.4453      0.00000
    167      13.5937      0.00000
    168      13.6877      0.00000
    169      13.9457      0.00000
    170      13.9793      0.00000
    171      14.3043      0.00000
    172      14.3450      0.00000


--------------------------------------------------------------------------------------------------------


 soft charge-density along one line, spin component           1
         0         1         2         3         4         5         6         7         8         9
 total charge-density along one line
 
 pseudopotential strength for first ion, spin component:           1
-13.876   0.000  -0.000   0.001  -0.000   0.133  -0.000   0.000
  0.000 -13.863   0.006   0.000  -0.001  -0.000   0.132  -0.000
 -0.000   0.006 -13.879  -0.000  -0.002   0.000  -0.000   0.133
  0.001   0.000  -0.000 -13.861   0.000  -0.000  -0.000  -0.000
 -0.000  -0.001  -0.002   0.000 -13.869   0.000   0.000  -0.000
  0.133  -0.000   0.000  -0.000   0.000   0.323   0.000  -0.000
 -0.000   0.132  -0.000  -0.000   0.000   0.000   0.324   0.000
  0.000  -0.000   0.133  -0.000  -0.000  -0.000   0.000   0.323
 -0.000  -0.000  -0.000   0.133  -0.000   0.000   0.000   0.000
  0.000   0.000  -0.000  -0.000   0.133  -0.000  -0.000  -0.000
 -0.000   0.000   0.001  -0.000   0.000   0.000   0.000   0.000
  0.000   0.000   0.000   0.000  -0.000  -0.000  -0.000  -0.000
 -0.003  -0.000   0.000  -0.000   0.000   0.000   0.000  -0.000
 -0.000  -0.000   0.000  -0.007   0.000   0.000   0.000   0.000
 -0.000  -0.000   0.001  -0.000  -0.006   0.000   0.000   0.000
  0.001   0.000  -0.000   0.000  -0.000  -0.000  -0.000   0.000
  0.000   0.000  -0.000   0.005  -0.000  -0.000  -0.000   0.000
  0.000   0.000  -0.000   0.000   0.004  -0.000  -0.000  -0.000
 total augmentation occupancy for first ion, spin component:           1
  2.044   0.000  -0.001   0.000  -0.001   0.126  -0.000   0.001   0.001   0.002   0.003  -0.000   0.017  -0.004   0.000  -0.001
  0.000   2.043  -0.004   0.000   0.001  -0.000   0.136   0.003  -0.000   0.001  -0.006  -0.001  -0.001  -0.002  -0.001   0.000
 -0.001  -0.004   2.044  -0.001  -0.001   0.001   0.003   0.128   0.002  -0.004  -0.023  -0.006  -0.002   0.000  -0.020   0.000
  0.000   0.000  -0.001   2.037  -0.001   0.001  -0.000   0.002   0.128   0.002   0.001   0.000  -0.002  -0.028   0.001  -0.000
 -0.001   0.001  -0.001  -0.001   2.041   0.002   0.001  -0.004   0.002   0.127   0.014   0.000   0.000   0.001  -0.013  -0.000
  0.126  -0.000   0.001   0.001   0.002   0.092   0.000  -0.002  -0.008  -0.003  -0.003   0.001  -0.032   0.001  -0.001   0.002
 -0.000   0.136   0.003  -0.000   0.001   0.000   0.074   0.018   0.001  -0.000   0.007  -0.003   0.001   0.003  -0.003  -0.000
  0.001   0.003   0.128   0.002  -0.004  -0.002   0.018   0.121  -0.002   0.042   0.046  -0.023   0.003  -0.000   0.043  -0.000
  0.001  -0.000   0.002   0.128   0.002  -0.008   0.001  -0.002   0.144  -0.003  -0.001  -0.000  -0.002   0.049  -0.002   0.000
  0.002   0.001  -0.004   0.002   0.127  -0.003  -0.000   0.042  -0.003   0.087  -0.014   0.010   0.000  -0.002   0.013   0.000
  0.003  -0.006  -0.023   0.001   0.014  -0.003   0.007   0.046  -0.001  -0.014   0.677  -0.332   0.008   0.004   0.013  -0.000
 -0.000  -0.001  -0.006   0.000   0.000   0.001  -0.003  -0.023  -0.000   0.010  -0.332   0.212  -0.001  -0.001   0.004  -0.000
  0.017  -0.001  -0.002  -0.002   0.000  -0.032   0.001   0.003  -0.002   0.000   0.008  -0.001   0.074  -0.001   0.002  -0.005
 -0.004  -0.002   0.000  -0.028   0.001   0.001   0.003  -0.000   0.049  -0.002   0.004  -0.001  -0.001   0.090  -0.001   0.000
  0.000  -0.001  -0.020   0.001  -0.013  -0.001  -0.003   0.043  -0.002   0.013   0.013   0.004   0.002  -0.001   0.067  -0.000
 -0.001   0.000   0.000  -0.000  -0.000   0.002  -0.000  -0.000   0.000   0.000  -0.000  -0.000  -0.005   0.000  -0.000   0.000
 -0.000   0.000   0.000  -0.004  -0.000   0.000  -0.000  -0.000  -0.003   0.000  -0.000   0.000   0.000  -0.006   0.000   0.000
 -0.000  -0.000   0.000  -0.000  -0.003   0.000   0.000  -0.003   0.000  -0.001  -0.000  -0.000  -0.000   0.000  -0.005   0.000


------------------------ aborting loop because EDIFF is reached ----------------------------------------


 


 total charge     
 
# of ion     s       p       d       tot
----------------------------------------
  1        0.225   0.147   9.312   9.684
  2        0.222   0.148   9.312   9.682
  3        0.223   0.148   9.309   9.679
  4        0.220   0.149   9.309   9.678
  5        0.221   0.148   9.310   9.679
  6        0.225   0.146   9.309   9.681
  7        0.221   0.147   9.312   9.681
  8        0.224   0.147   9.312   9.682
  9        0.222   0.148   9.311   9.681
 10        0.225   0.147   9.311   9.683
 11        0.221   0.148   9.308   9.677
 12        0.224   0.147   9.307   9.679
 13        0.596   0.275   9.106   9.976
 14        0.568   0.291   9.130   9.989
 15        0.601   0.272   9.103   9.976
 16        0.606   0.269   9.101   9.976
 17        1.462   2.283   0.036   3.781
 18        1.463   2.280   0.037   3.780
 19        1.461   2.282   0.036   3.780
 20        1.461   2.282   0.036   3.780
 21        1.463   2.280   0.037   3.780
 22        1.462   2.284   0.036   3.782
 23        1.461   2.281   0.036   3.779
 24        1.461   2.280   0.036   3.778
------------------------------------------------
tot       16.739  21.129 148.456 186.324
 


--------------------------------------------------------------------------------------------------------


    CHARGE:  VPU time    2.27: CPU time    2.27
    FORLOC:  VPU time    0.01: CPU time    0.01
    FORNL :  VPU time   17.66: CPU time   17.68
    STRESS:  VPU time   33.99: CPU time   34.05
    FORCOR:  VPU time    0.08: CPU time    0.08
    FORHAR:  VPU time    0.03: CPU time    0.03
    MIXING:  VPU time    0.00: CPU time    0.00


--------------------------------------------------------------------------------------------------------



  FREE ENERGIE OF THE ION-ELECTRON SYSTEM (eV)
  ---------------------------------------------------
  free  energy   TOTEN  =       -43.208551 eV

  energy  without entropy=      -43.208551  energy(sigma->0) =      -43.208551
 

  FORCE on cell =-STRESS in cart. coord.  units (eV/reduce length):
  Direction    X        Y        Z        XY       YZ       ZX
  --------------------------------------------------------------------------------------
  Alpha Z   1328.65   1328.65   1328.65
  Ewald    -5132.68  -5132.68  -5132.68      0.00      0.00      0.00
  Hartree   1554.14   1554.14   1554.14     -0.00     -0.00     -0.00
  E(xc)    -1083.38  -1083.38  -1083.38     -0.00     -0.00     -0.00
  Local      590.32    590.32    590.32     -0.00     -0.00     -0.00
  n-local   -774.40   -773.19   -772.09      2.55     -1.97     -1.48
  augment    620.37    620.37    620.37      0.00      0.00      0.00
  Kinetic   2892.63   2895.94   2898.83      6.94     -5.44     -4.20
  -------------------------------------------------------------------------------------
  Total       -0.01     -0.01     -0.01     -0.00     -0.00      0.00
  in kB       -0.03     -0.03     -0.03     -0.00     -0.00      0.00
  external pressure =       -0.03 kB  Pullay stress =        0.00 kB


 VOLUME and BASIS-vectors are now :
 -----------------------------------------------------------------------------
  energy-cutoff  :      349.78
  volume of cell :      519.76
      direct lattice vectors                 reciprocal lattice vectors
    -5.065011875  5.065011875  5.065011875     0.000000000  0.098716452  0.098716452
     5.065011875 -5.065011875  5.065011875     0.098716452  0.000000000  0.098716452
     5.065011875  5.065011875 -5.065011875     0.098716452  0.098716452  0.000000000

  length of vectors
     8.772857909  8.772857909  8.772857909     0.139606145  0.139606145  0.139606145


 FORCES acting on ions
    electron-ion (+dipol)            ewald-force                    non-local-force                 convergence-correction
 -----------------------------------------------------------------------------------------------
   -.174E+03 0.140E-06 0.217E-05   0.175E+03 -.575E-11 -.177E-11   -.639E+00 0.520E-17 -.520E-17   0.438E-02 0.159E-04 -.902E-05
   0.174E+03 -.343E-05 -.541E-05   -.175E+03 0.128E-11 0.814E-11   0.639E+00 0.173E-17 -.173E-17   -.439E-02 -.112E-04 0.662E-05
   0.192E-05 -.174E+03 0.101E-05   -.178E-11 0.175E+03 -.577E-11   0.347E-17 -.639E+00 0.694E-17   0.904E-05 0.438E-02 -.159E-04
   -.607E-05 0.174E+03 -.368E-05   0.815E-11 -.175E+03 0.138E-11   -.347E-17 0.639E+00 -.347E-17   -.662E-05 -.439E-02 0.113E-04
   0.118E-05 0.236E-05 -.174E+03   -.573E-11 -.179E-11 0.175E+03   0.347E-17 -.173E-17 -.639E+00   -.113E-04 -.661E-05 0.439E-02
   -.406E-05 -.672E-05 0.174E+03   0.133E-11 0.825E-11 -.175E+03   0.000E+00 -.173E-17 0.639E+00   0.159E-04 0.903E-05 -.438E-02
   0.343E-05 -.174E+03 0.541E-05   -.131E-11 0.175E+03 -.815E-11   -.520E-17 -.639E+00 0.347E-17   0.112E-04 0.439E-02 -.662E-05
   -.140E-06 0.174E+03 -.217E-05   0.581E-11 -.175E+03 0.182E-11   -.173E-17 0.639E+00 0.694E-17   -.159E-04 -.438E-02 0.902E-05
   -.174E+03 0.607E-05 0.368E-05   0.175E+03 -.826E-11 -.134E-11   -.639E+00 0.347E-17 0.347E-17   0.439E-02 0.662E-05 -.113E-04
   0.174E+03 -.192E-05 -.101E-05   -.175E+03 0.176E-11 0.574E-11   0.639E+00 -.694E-17 -.694E-17   -.438E-02 -.904E-05 0.159E-04
   -.236E-05 -.118E-05 0.174E+03   0.178E-11 0.576E-11 -.175E+03   -.434E-17 -.867E-18 0.639E+00   0.661E-05 0.113E-04 -.439E-02
   0.672E-05 0.406E-05 -.174E+03   -.824E-11 -.135E-11 0.175E+03   0.520E-17 0.173E-17 -.639E+00   -.903E-05 -.159E-04 0.438E-02
   0.177E-06 -.177E-06 0.189E-11   -.634E-13 -.829E-13 -.768E-13   0.000E+00 -.542E-19 0.542E-19   -.318E-06 0.318E-06 -.135E-12
   -.183E-06 0.183E-06 -.617E-12   0.178E-14 -.977E-14 0.280E-14   -.228E-17 0.152E-17 -.108E-18   -.370E-08 0.370E-08 0.382E-12
   0.623E-07 0.636E-07 0.177E-06   0.216E-13 -.162E-13 -.397E-14   0.867E-18 0.217E-18 -.217E-18   0.370E-08 -.318E-06 -.322E-06
   -.636E-07 -.623E-07 -.177E-06   0.882E-13 0.822E-13 0.537E-13   0.108E-18 -.542E-18 0.759E-18   0.318E-06 -.370E-08 0.322E-06
   -.943E+02 -.943E+02 -.943E+02   0.960E+02 0.960E+02 0.960E+02   -.172E+01 -.172E+01 -.172E+01   0.202E-02 0.201E-02 0.201E-02
   0.943E+02 0.943E+02 -.943E+02   -.960E+02 -.960E+02 0.960E+02   0.172E+01 0.172E+01 -.172E+01   -.202E-02 -.202E-02 0.202E-02
   0.943E+02 -.943E+02 0.943E+02   -.960E+02 0.960E+02 -.960E+02   0.172E+01 -.172E+01 0.172E+01   -.201E-02 0.202E-02 -.201E-02
   -.943E+02 0.943E+02 0.943E+02   0.960E+02 -.960E+02 -.960E+02   -.172E+01 0.172E+01 0.172E+01   0.201E-02 -.201E-02 -.202E-02
   -.943E+02 -.943E+02 0.943E+02   0.960E+02 0.960E+02 -.960E+02   -.172E+01 -.172E+01 0.172E+01   0.202E-02 0.202E-02 -.202E-02
   0.943E+02 0.943E+02 0.943E+02   -.960E+02 -.960E+02 -.960E+02   0.172E+01 0.172E+01 0.172E+01   -.201E-02 -.202E-02 -.201E-02
   -.943E+02 0.943E+02 -.943E+02   0.960E+02 -.960E+02 0.960E+02   -.172E+01 0.172E+01 -.172E+01   0.201E-02 -.201E-02 0.202E-02
   0.943E+02 -.943E+02 -.943E+02   -.960E+02 0.960E+02 0.960E+02   0.172E+01 -.172E+01 -.172E+01   -.202E-02 0.201E-02 0.201E-02
 -----------------------------------------------------------------------------------------------
   0.890E-06 -.890E-06 0.252E-10   -.995E-13 0.853E-13 0.853E-13   -.222E-15 -.444E-15 0.178E-14   -.172E-11 0.144E-11 0.529E-12
 
 
 POSITION                                       TOTAL-FORCE (eV/Angst)
 -----------------------------------------------------------------------------------
      3.78568      0.00000      2.53251        -0.009505      0.000000     -0.000000
      1.27933     -0.00000      7.59752         0.009505     -0.000000      0.000000
      2.53251      3.78568      0.00000        -0.000000     -0.009505      0.000000
      7.59752      1.27933     -0.00000         0.000000      0.009505     -0.000000
      0.00000      2.53251      3.78568         0.000000     -0.000000     -0.009505
     -0.00000      7.59752      1.27933        -0.000000      0.000000      0.009505
      2.53251      1.25318      5.06501         0.000000     -0.009505     -0.000000
     -2.53251      3.81184      5.06501        -0.000000      0.009505      0.000000
      1.25318      5.06501      2.53251        -0.009505     -0.000000      0.000000
      3.81184      5.06501     -2.53251         0.009505      0.000000     -0.000000
      5.06501     -2.53251      3.81184         0.000000     -0.000000      0.009505
      5.06501      2.53251      1.25318        -0.000000      0.000000     -0.009505
      1.26625      1.26625      1.26625        -0.000000     -0.000000      0.000000
     -1.26625      3.79876      1.26625        -0.000000     -0.000000      0.000000
      3.79876      1.26625     -1.26625         0.000000      0.000000      0.000000
      1.26625     -1.26625      3.79876        -0.000000      0.000000     -0.000000
      2.70372      2.70372      2.70372        -0.016172     -0.016172     -0.016172
      2.36129      7.42630     -2.36129         0.016172      0.016172     -0.016172
      7.42630     -2.36129      2.36129         0.016172     -0.016172      0.016172
     -2.36129      2.36129      7.42630        -0.016172      0.016172      0.016172
      0.17122      5.23623     -0.17122        -0.016172     -0.016172      0.016172
      4.89379      4.89379      4.89379         0.016172      0.016172      0.016172
      5.23623     -0.17122      0.17122        -0.016172      0.016172     -0.016172
     -0.17122      0.17122      5.23623         0.016172     -0.016172     -0.016172
 -----------------------------------------------------------------------------------
    total drift:                                0.000001     -0.000001      0.000000


--------------------------------------------------------------------------------------------------------



 mean value of Nose-termostat <S>:     1.000 mean value of <T> :     0.000
 mean temperature <T/S>/<1/S>  :     0.000

     LOOP+:  VPU time 1076.94: CPU time 1085.56
 


 total charge     
 
# of ion     s       p       d       tot
----------------------------------------
  1        0.225   0.147   9.312   9.684
  2        0.222   0.148   9.312   9.682
  3        0.223   0.148   9.309   9.679
  4        0.220   0.149   9.309   9.678
  5        0.221   0.148   9.310   9.679
  6        0.225   0.146   9.309   9.681
  7        0.221   0.147   9.312   9.681
  8        0.224   0.147   9.312   9.682
  9        0.222   0.148   9.311   9.681
 10        0.225   0.147   9.311   9.683
 11        0.221   0.148   9.308   9.677
 12        0.224   0.147   9.307   9.679
 13        0.596   0.275   9.106   9.976
 14        0.568   0.291   9.130   9.989
 15        0.601   0.272   9.103   9.976
 16        0.606   0.269   9.101   9.976
 17        1.462   2.283   0.036   3.781
 18        1.463   2.280   0.037   3.780
 19        1.461   2.282   0.036   3.780
 20        1.461   2.282   0.036   3.780
 21        1.463   2.280   0.037   3.780
 22        1.462   2.284   0.036   3.782
 23        1.461   2.281   0.036   3.779
 24        1.461   2.280   0.036   3.778
------------------------------------------------
tot       16.739  21.129 148.456 186.324
 
 BZINTS: Fermi energy:  2.228321;224.000000 electrons
         Band energy:-565.144273;  BLOECHL correction:  0.000000
  
  
 General timing and accounting informations for this job:
 ========================================================
  
                  Total CPU time used (sec):     1112.013
                            User time (sec):     1080.029
                          System time (sec):       31.984
                         Elapsed time (sec):     1128.486
  
                   Maximum memory used (kb):       88228.
                   Average memory used (kb):           0.
  
                          Minor page faults:        18460
                          Major page faults:            0
                 Voluntary context switches:         1797
