 vasp.4.6.35 3Apr08 complex 
 executed on             LinuxIFC date 2015.01.12  01:36:08
 running on   32 nodes
 distr:  one band on   16 nodes,    2 groups


--------------------------------------------------------------------------------------------------------


 INCAR:
 POTCAR:   PAW_PBE Ag 06Sep2000                   
 POTCAR:   PAW_PBE Au 06Sep2000                   
 POTCAR:   PAW_PBE Se 06Sep2000                   
 POTCAR:   PAW_PBE Ag 06Sep2000                   
   VRHFIN =Ag : s1 d10                                                          
   LEXCH  = PE                                                                  
   EATOM  =  1037.4134 eV,   76.2477 Ry                                         
                                                                                
   TITEL  = PAW_PBE Ag 06Sep2000                                                
   LULTRA =        F    use ultrasoft PP ?                                      
   IUNSCR =        1    unscreen: 0-lin 1-nonlin 2-no                           
   RPACOR =    2.000    partial core radius                                     
   POMASS =  107.868; ZVAL   =   11.000    mass and valenz                      
   RCORE  =    2.400    outmost cutoff radius                                   
   RWIGS  =    2.840; RWIGS  =    1.503    wigner-seitz radius (au A)           
   ENMAX  =  249.846; ENMIN  =  187.385 eV                                      
   RCLOC  =    1.962    cutoff for local pot                                    
   LCOR   =        T    correct aug charges                                     
   LPAW   =        T    paw PP                                                  
   EAUG   =  412.496                                                            
   DEXC   =    -.047                                                            
   RMAX   =    2.917    core radius for proj-oper                               
   RAUG   =    1.300    factor for augmentation sphere                          
   RDEP   =    2.416    radius for radial grids                                 
   QCUT   =   -4.285; QGAM   =    8.570    optimization parameters              
                                                                                
   Description                                                                  
     l     E      TYP  RCUT    TYP  RCUT                                        
     2   .000     23  2.400                                                     
     2   .000     23  2.400                                                     
     0   .000     23  2.400                                                     
     0   .000     23  2.400                                                     
     1  -.200     23  2.400                                                     
     1  1.500     23  2.400                                                     
     3   .000      7   .000                                                     
  local pseudopotential read in
  partial core-charges read in
  atomic valenz-charges read in
  non local Contribution for L=           2  read in
    real space projection operators read in
  non local Contribution for L=           2  read in
    real space projection operators read in
  non local Contribution for L=           0  read in
    real space projection operators read in
  non local Contribution for L=           0  read in
    real space projection operators read in
  non local Contribution for L=           1  read in
    real space projection operators read in
  non local Contribution for L=           1  read in
    real space projection operators read in
    PAW grid and wavefunctions read in
 
   number of l-projection  operators is LMAX  =           6
   number of lm-projection operators is LMMAX =          18
 
 POTCAR:   PAW_PBE Au 06Sep2000                   
   VRHFIN =Au: s1d10                                                            
   LEXCH  = PE                                                                  
   EATOM  =   926.0567 eV,   68.0632 Ry                                         
                                                                                
   TITEL  = PAW_PBE Au 06Sep2000                                                
   LULTRA =        F    use ultrasoft PP ?                                      
   IUNSCR =        1    unscreen: 0-lin 1-nonlin 2-no                           
   RPACOR =    2.330    partial core radius                                     
   POMASS =  196.966; ZVAL   =   11.000    mass and valenz                      
   RCORE  =    2.500    outmost cutoff radius                                   
   RWIGS  =    2.840; RWIGS  =    1.503    wigner-seitz radius (au A)           
   ENMAX  =  229.948; ENMIN  =  172.461 eV                                      
   RCLOC  =    1.964    cutoff for local pot                                    
   LCOR   =        T    correct aug charges                                     
   LPAW   =        T    paw PP                                                  
   EAUG   =  356.670                                                            
   DEXC   =    -.025                                                            
   RMAX   =    3.041    core radius for proj-oper                               
   RAUG   =    1.300    factor for augmentation sphere                          
   RDEP   =    2.598    radius for radial grids                                 
   QCUT   =   -4.111; QGAM   =    8.222    optimization parameters              
                                                                                
   Description                                                                  
     l     E      TYP  RCUT    TYP  RCUT                                        
     2   .000     23  2.500                                                     
     2   .000     23  2.500                                                     
     0   .000     23  2.500                                                     
     0   .000     23  2.500                                                     
     1  -.200     23  2.500                                                     
     1   .000     23  2.500                                                     
     3   .000      7   .000                                                     
  local pseudopotential read in
  partial core-charges read in
  atomic valenz-charges read in
  non local Contribution for L=           2  read in
    real space projection operators read in
  non local Contribution for L=           2  read in
    real space projection operators read in
  non local Contribution for L=           0  read in
    real space projection operators read in
  non local Contribution for L=           0  read in
    real space projection operators read in
  non local Contribution for L=           1  read in
    real space projection operators read in
  non local Contribution for L=           1  read in
    real space projection operators read in
    PAW grid and wavefunctions read in
 
   number of l-projection  operators is LMAX  =           6
   number of lm-projection operators is LMMAX =          18
 
 POTCAR:   PAW_PBE Se 06Sep2000                   
   VRHFIN =Se: s2p4                                                             
   LEXCH  = PE                                                                  
   EATOM  =   256.9644 eV,   18.8864 Ry                                         
                                                                                
   TITEL  = PAW_PBE Se 06Sep2000                                                
   LULTRA =        F    use ultrasoft PP ?                                      
   IUNSCR =        1    unscreen: 0-lin 1-nonlin 2-no                           
   RPACOR =    1.900    partial core radius                                     
   POMASS =   78.960; ZVAL   =    6.000    mass and valenz                      
   RCORE  =    2.100    outmost cutoff radius                                   
   RWIGS  =    2.200; RWIGS  =    1.164    wigner-seitz radius (au A)           
   ENMAX  =  211.534; ENMIN  =  158.651 eV                                      
   ICORE  =        3    local potential                                         
   LCOR   =        T    correct aug charges                                     
   LPAW   =        T    paw PP                                                  
   EAUG   =  446.842                                                            
   DEXC   =    -.031                                                            
   RMAX   =    3.170    core radius for proj-oper                               
   RAUG   =    1.300    factor for augmentation sphere                          
   RDEP   =    2.177    radius for radial grids                                 
   QCUT   =   -3.943; QGAM   =    7.886    optimization parameters              
                                                                                
   Description                                                                  
     l     E      TYP  RCUT    TYP  RCUT                                        
     0   .000     23  2.100                                                     
     0   .000     23  2.100                                                     
     1   .000     23  2.100                                                     
     1   .000     23  2.100                                                     
     2   .000     23  2.100                                                     
     3  -.100      7  2.100                                                     
  local pseudopotential read in
  partial core-charges read in
  atomic valenz-charges read in
  non local Contribution for L=           0  read in
    real space projection operators read in
  non local Contribution for L=           0  read in
    real space projection operators read in
  non local Contribution for L=           1  read in
    real space projection operators read in
  non local Contribution for L=           1  read in
    real space projection operators read in
  non local Contribution for L=           2  read in
    real space projection operators read in
    PAW grid and wavefunctions read in
 
   number of l-projection  operators is LMAX  =           5
   number of lm-projection operators is LMMAX =          13
 

 ----------------------------------------------------------------------------- 
|                                                                             |
|  ADVICE TO THIS USER RUNNING 'VASP/VAMP'   (HEAR YOUR MASTER'S VOICE ...):  |
|                                                                             |
|      You have a (more or less) 'large supercell' and for larger cells       |
|      it might be more efficient to use real space projection operators      |
|      So try LREAL= Auto  in the INCAR   file.                               |
|      Mind: If you want to do an extremely accurate calculations keep the    |
|      reciprocal projection scheme          (i.e. LREAL=.FALSE.)             |
|                                                                             |
 ----------------------------------------------------------------------------- 

 PAW_PBE Ag 06Sep2000                   :
 energy of atom  1       EATOM=-1037.4134
 kinetic energy error for atom=    0.0273 (will be added to EATOM!!)
 PAW_PBE Au 06Sep2000                   :
 energy of atom  2       EATOM= -926.0567
 kinetic energy error for atom=    0.0153 (will be added to EATOM!!)
 PAW_PBE Se 06Sep2000                   :
 energy of atom  3       EATOM= -256.9644
 kinetic energy error for atom=    0.0032 (will be added to EATOM!!)
 
 EXHCAR: internal setup
 exchange correlation table for  LEXCH =        8
   RHO(1)=    0.500       N(1)  =     2000
   RHO(2)=  100.500       N(2)  =     4000
 
 POSCAR: Ag3Au1Se2   [BCC,BCC,cI48] (STD_PRIM doi
  positions in direct lattice
  No initial velocities read in
 


--------------------------------------------------------------------------------------------------------


 ion  position               nearest neighbor table
   1  0.628  0.250  0.878-  23 2.79  21 2.79  20 2.91  17 2.91  13 3.08  16 3.08   7 3.08   8 3.08
                            11 3.13  12 3.13
   2  0.872  0.750  0.622-  22 2.79  24 2.79  18 2.91  19 2.91  14 3.08  15 3.08   7 3.08   8 3.08
                            11 3.13  12 3.13
   3  0.378  0.628  0.750-  21 2.79  24 2.79  17 2.91  19 2.91  13 3.08  15 3.08  11 3.08  12 3.08
                             9 3.13  10 3.13
   4  0.122  0.872  0.250-  22 2.79  23 2.79  18 2.91  20 2.91  14 3.08  16 3.08  11 3.08  12 3.08
                             9 3.13  10 3.13
   5  0.750  0.122  0.372-  23 2.79  24 2.79  18 2.91  17 2.91  13 3.08  14 3.08   9 3.08  10 3.08
                             7 3.13   8 3.13
   6  0.250  0.378  0.128-  22 2.79  21 2.79  19 2.91  20 2.91  15 3.08  16 3.08   9 3.08  10 3.08
                             7 3.13   8 3.13
   7  0.628  0.378  0.250-  17 2.79  19 2.79  21 2.91  24 2.91  14 3.08  16 3.08   1 3.08   2 3.08
                             5 3.13   6 3.13
   8  0.872  0.122  0.750-  18 2.79  20 2.79  22 2.91  23 2.91  13 3.08  15 3.08   1 3.08   2 3.08
                             5 3.13   6 3.13
   9  0.378  0.750  0.128-  17 2.79  20 2.79  21 2.91  23 2.91  14 3.08  15 3.08   5 3.08   6 3.08
                             3 3.13   4 3.13
  10  0.122  0.250  0.372-  19 2.79  18 2.79  22 2.91  24 2.91  13 3.08  16 3.08   5 3.08   6 3.08
                             3 3.13   4 3.13
  11  0.750  0.628  0.878-  19 2.79  20 2.79  21 2.91  22 2.91  13 3.08  14 3.08   3 3.08   4 3.08
                             1 3.13   2 3.13
  12  0.250  0.872  0.622-  17 2.79  18 2.79  24 2.91  23 2.91  15 3.08  16 3.08   3 3.08   4 3.08
                             1 3.13   2 3.13
  13  0.750  0.000  0.000-  17 2.49  22 2.49   5 3.08   8 3.08  10 3.08  11 3.08   1 3.08   3 3.08
                            16 3.58  14 3.58  15 3.58
  14  0.750  0.750  0.250-  18 2.49  21 2.49   5 3.08   7 3.08   9 3.08  11 3.08   2 3.08   4 3.08
                            16 3.58  13 3.58  15 3.58
  15  0.500  0.750  0.500-  19 2.49  23 2.49   6 3.08   8 3.08   9 3.08  12 3.08   2 3.08   3 3.08
                            16 3.58  14 3.58  13 3.58
  16  0.000  0.500  0.250-  20 2.49  24 2.49   6 3.08   7 3.08  10 3.08  12 3.08   1 3.08   4 3.08
                            15 3.58  13 3.58  14 3.58
  17  0.466  0.000  0.000-  13 2.49   9 2.79  12 2.79   7 2.79   1 2.91   3 2.91   5 2.91
  18  0.034  0.034  0.534-  14 2.49   8 2.79  12 2.79  10 2.79   2 2.91   5 2.91   4 2.91
  19  0.500  0.466  0.500-  15 2.49  10 2.79  11 2.79   7 2.79   6 2.91   3 2.91   2 2.91
  20  0.000  0.500  0.966-  16 2.49   9 2.79  11 2.79   8 2.79   1 2.91   6 2.91   4 2.91
  21  0.466  0.466  0.966-  14 2.49   3 2.79   6 2.79   1 2.79  11 2.91   9 2.91   7 2.91
  22  0.034  0.000  0.000-  13 2.49   6 2.79   2 2.79   4 2.79  10 2.91  11 2.91   8 2.91
  23  0.500  0.034  0.500-  15 2.49   4 2.79   5 2.79   1 2.79  12 2.91   8 2.91   9 2.91
  24  0.000  0.500  0.534-  16 2.49   3 2.79   5 2.79   2 2.79  12 2.91  10 2.91   7 2.91
 
  LATTYP: Found a body centered cubic cell.
 ALAT       =    10.1337886756
  
  Lattice vectors:
  
 A1 = (  -5.0668943378,   5.0668943378,   5.0668943378)
 A2 = (   5.0668943378,  -5.0668943378,   5.0668943378)
 A3 = (   5.0668943378,   5.0668943378,  -5.0668943378)
 Subroutine PRICEL returns:
 Original cell was already a primitive cell.
 

Analysis of symmetry for initial positions (statically):

 Routine SETGRP: Setting up the symmetry group for a 
 body centered cubic supercell.


 Subroutine GETGRP returns: Found 24 space group operations
 (whereof  3 operations were pure point group operations)
 out of a pool of 48 trial point group operations.


The static configuration has the point symmetry C_3 .
 The point group associated with its full space group is O   .

Analysis of symmetry for dynamics (positions and initial velocities):

 Subroutine DYNSYM returns: Found 24 space group operations
 (whereof  3 operations were pure point group operations)
 out of a pool of 24 trial space group operations
 (whereof  3 operations were pure point group operations)
 and found also     1 'primitive' translations


The dynamic configuration has the point symmetry C_3 .
 The point group associated with its full space group is O   .
 
 
 KPOINTS: KPOINTS File, automatically generated by

Automatic generation of k-mesh.
 
 Subroutine IBZKPT returns following result:
 ===========================================
 
 Found     26 irreducible k-points:
 
 Following reciprocal coordinates:
            Coordinates               Weight
  0.062500  0.062500  0.062500      8.000000
  0.187500  0.062500  0.062500     24.000000
  0.312500  0.062500  0.062500     24.000000
  0.437500  0.062500  0.062500     12.000000
 -0.062500  0.062500  0.062500      6.000000
  0.187500  0.187500  0.062500     24.000000
  0.312500  0.187500  0.062500     48.000000
 -0.187500  0.187500  0.062500     24.000000
  0.312500  0.312500  0.062500      8.000000
 -0.312500  0.312500  0.062500     24.000000
 -0.187500  0.312500  0.062500     24.000000
 -0.437500  0.437500  0.062500     24.000000
 -0.312500  0.437500  0.062500     48.000000
 -0.437500 -0.437500  0.062500     24.000000
 -0.312500 -0.437500  0.062500     24.000000
  0.187500  0.187500  0.187500      8.000000
  0.312500  0.187500  0.187500     12.000000
 -0.187500  0.187500  0.187500      6.000000
 -0.312500  0.312500  0.187500     24.000000
 -0.437500  0.437500  0.187500     24.000000
 -0.312500  0.437500  0.187500     24.000000
 -0.437500 -0.437500  0.187500     24.000000
 -0.312500  0.312500  0.312500      6.000000
 -0.437500  0.437500  0.312500     24.000000
 -0.437500 -0.437500  0.312500      8.000000
 -0.437500  0.437500  0.437500      6.000000
 
 Following cartesian coordinates:
            Coordinates               Weight
  0.012335  0.012335  0.012335      8.000000
  0.012335  0.024670  0.024670     24.000000
  0.012335  0.037005  0.037005     24.000000
  0.012335  0.049340  0.049340     12.000000
  0.012335  0.000000  0.000000      6.000000
  0.024670  0.024670  0.037005     24.000000
  0.024670  0.037005  0.049340     48.000000
  0.024670 -0.012335  0.000000     24.000000
  0.037005  0.037005  0.061675      8.000000
  0.037005 -0.024670  0.000000     24.000000
  0.037005 -0.012335  0.012335     24.000000
  0.049340 -0.037005  0.000000     24.000000
  0.049340 -0.024670  0.012335     48.000000
 -0.037005 -0.037005 -0.086345     24.000000
 -0.037005 -0.024670 -0.074010     24.000000
  0.037005  0.037005  0.037005      8.000000
  0.037005  0.049340  0.049340     12.000000
  0.037005  0.000000  0.000000      6.000000
  0.049340 -0.012335  0.000000     24.000000
  0.061675 -0.024670  0.000000     24.000000
  0.061675 -0.012335  0.012335     24.000000
 -0.024670 -0.024670 -0.086345     24.000000
  0.061675  0.000000  0.000000      6.000000
  0.074010 -0.012335  0.000000     24.000000
 -0.012335 -0.012335 -0.086345      8.000000
  0.086345  0.000000  0.000000      6.000000
 
 TETIRR: Found    534 inequivalent tetrahedra from     3072


--------------------------------------------------------------------------------------------------------




 Dimension of arrays:
   k-Points           NKPTS =     26   number of bands    NBANDS=    172
   number of dos      NEDOS =   5000   number of ions     NIONS =     24
   non local maximal  LDIM  =      6   non local SUM 2l+1 LMDIM =     18
   total plane-waves  NPLWV = 157464
   max r-space proj   IRMAX =      1   max aug-charges    IRDMAX=   7720
   dimension x,y,z NGX =    54 NGY =   54 NGZ =   54
   dimension x,y,z NGXF=    80 NGYF=   80 NGZF=   80
   support grid    NGXF=    80 NGYF=   80 NGZF=   80
   ions per type =              12   4   8
 NGX,Y,Z   is equivalent  to a cutoff of  10.23, 10.23, 10.23 a.u.
 NGXF,Y,Z  is equivalent  to a cutoff of  15.15, 15.15, 15.15 a.u.


 I would recommend the setting:
   dimension x,y,z NGX =    54 NGY =   54 NGZ =   54
 SYSTEM =  Ag3Au1Se2_ICSD_15734                    
 POSCAR =  Ag3Au1Se2   [BCC,BCC,cI48] (STD_PRIM doi

 Startparameter for this run:
   NWRITE =      2    write-flag & timer
   PREC   = high      medium, high low
   ISTART =      0    job   : 0-new  1-cont  2-samecut
   ICHARG =      2    charge: 1-file 2-atom 10-const
   ISPIN  =      1    spin polarized calculation?
   LNONCOLLINEAR =      F non collinear calculations
   LSORBIT =      F    spin-orbit coupling
   INIWAV =      1    electr: 0-lowe 1-rand  2-diag
   LASPH  =      F    aspherical Exc in radial PAW
   METAGGA=      F    non-selfconsistent MetaGGA calc.

 Electronic Relaxation 1
   ENCUT  =  349.8 eV  25.71 Ry    5.07 a.u.  13.38 13.38 13.38*2*pi/ulx,y,z
   ENINI  =  349.8     initial cutoff
   ENAUG  =  446.8 eV  augmentation charge cutoff
   NELM   =    120;   NELMIN=  2; NELMDL=  0     # of ELM steps 
   EDIFF  = 0.1E-03   stopping-criterion for ELM
   LREAL  =      F    real-space projection
   LCOMPAT=      F    compatible to vasp.4.4
   LREAL_COMPAT= F    compatible to vasp.4.5.1-3
   GGA_COMPAT  = T    GGA compatible to vasp.4.4-vasp.4.6
   LMAXPAW     = -100 max onsite density
   LMAXMIX     =    4 max onsite mixed and CHGCAR
   VOSKOWN=      0    Vosko Wilk Nusair interpolation
   ROPT   =    0.00000   0.00000   0.00000
 Ionic relaxation
   EDIFFG = 0.1E-02   stopping-criterion for IOM
   NSW    =      0    number of steps for IOM
   NBLOCK =      1;   KBLOCK =      1    inner block; outer block 
   IBRION =     -1    ionic relax: 0-MD 1-quasi-New 2-CG
   NFREE  =      1    steps in history (QN), initial steepest desc. (CG)
   ISIF   =      2    stress and relaxation
   IWAVPR =     10    prediction:  0-non 1-charg 2-wave 3-comb
   ISYM   =      2    0-nonsym 1-usesym 2-fastsym
   LCORR  =      T    Harris-Foulkes like correction to forces

   POTIM  =   0.50    time-step for ionic-motion
   TEIN   =    0.0    initial temperature
   TEBEG  =    0.0;   TEEND  =   0.0 temperature during run
   SMASS  =  -3.00    Nose mass-parameter (am)
   estimated Nose-frequenzy (Omega)   =  0.10E-29 period in steps =****** mass=  -0.176E-26a.u.
   NPACO  =    256;   APACO  = 16.0  distance and # of slots for P.C.
   PSTRESS=    0.0 pullay stress

  Mass of Ions in am
   POMASS = 107.87196.97 78.96
  Ionic Valenz
   ZVAL   =  11.00 11.00  6.00
  Atomic Wigner-Seitz radii
   RWIGS  =  -1.00 -1.00 -1.00
   NELECT =     224.0000    total number of electrons
   NUPDOWN=      -1.0000    fix difference up-down

 DOS related values:
   EMIN   = -30.00;   EMAX   = 45.00  energy-range for DOS
   ISMEAR =    -5;   SIGMA  =   0.05  broadening in eV -4-tet -1-fermi 0-gaus

 Electronic relaxation 2 (details)
   IALGO  =     38    algorithm
   LDIAG  =      T    sub-space diagonalisation
   IMIX   =      4    mixing-type and parameters
     AMIX     =   0.40;   BMIX     =  1.00
     AMIX_MAG =   1.60;   BMIX_MAG =  1.00
     AMIN     =   0.10
     WC   =   100.;   INIMIX=   1;  MIXPRE=   1

 Intra band minimization:
   WEIMIN = 0.0000     energy-eigenvalue tresh-hold
   EBREAK =  0.15E-06  absolut break condition
   DEPER  =   0.30     relativ break condition  

   TIME   =   0.10     timestep for ELM

  volume/ion in A,a.u.               =      21.68       146.31
  Fermi-wavevector in a.u.,eV,Ry     =   1.236125 20.789764  1.528005

 Second variation
   LSECVAR=     F    do a second variation
 
 Write flags
   LWAVE  =      F    write WAVECAR
   LCHARG =      T    write CHGCAR
   LVTOT  =      F    write LOCPOT, local potential
   LELF   =      F    write electronic localiz. function (ELF)
   LORBIT =     10    0 simple, 1 ext, 2 COOP (PROOUT)


 Dipole corrections
   IDIPOL =      0    1-x, 2-y, 3-z
   LDIPOL =      F    correct potential

 LDA+U is selected, type is set to LDAUTYPE =  2
   angular momentum for each species LDAUL =     2    2    0
   U (eV)           for each species LDAUU =   5.8  4.0  0.0
   J (eV)           for each species LDAUJ =   0.0  0.0  0.0


--------------------------------------------------------------------------------------------------------


 Static calculation
 charge density will be updated during run
 non-spin polarized calculation
 Variant of blocked Davidson
 Davidson routine will perform the subspace rotation
 performe sub-space diagonalisation
    after iterative eigenvector-optimisation
 modified Broyden-mixing scheme, WC =      100.0
 initial mixing is a Kerker type mixing with AMIX =  0.4000 and BMIX =      1.0000
 Hartree-type preconditioning will be used
 using additional bands           60
 reciprocal scheme for non local part
 use partial core corrections
 calculate Harris-corrections to forces 
   (improved forces if not selfconsistent)
 use gradient corrections 
 use of overlap-Matrix (Vanderbilt PP)
 Fermi weights with tetrahedron method with Bloechl corrections


--------------------------------------------------------------------------------------------------------


  energy-cutoff  :      349.78
  volume of cell :      520.34
      direct lattice vectors                 reciprocal lattice vectors
    -5.066894338  5.066894338  5.066894338     0.000000000  0.098679776  0.098679776
     5.066894338 -5.066894338  5.066894338     0.098679776  0.000000000  0.098679776
     5.066894338  5.066894338 -5.066894338     0.098679776  0.098679776  0.000000000

  length of vectors
     8.776118430  8.776118430  8.776118430     0.139554278  0.139554278  0.139554278


 
 k-points in units of 2pi/SCALE and weight: KPOINTS File, automatically generated by
   0.01233497  0.01233497  0.01233497       0.016
   0.01233497  0.02466994  0.02466994       0.047
   0.01233497  0.03700492  0.03700492       0.047
   0.01233497  0.04933989  0.04933989       0.023
   0.01233497  0.00000000  0.00000000       0.012
   0.02466994  0.02466994  0.03700492       0.047
   0.02466994  0.03700492  0.04933989       0.094
   0.02466994 -0.01233497  0.00000000       0.047
   0.03700492  0.03700492  0.06167486       0.016
   0.03700492 -0.02466994  0.00000000       0.047
   0.03700492 -0.01233497  0.01233497       0.047
   0.04933989 -0.03700492  0.00000000       0.047
   0.04933989 -0.02466994  0.01233497       0.094
  -0.03700492 -0.03700492 -0.08634480       0.047
  -0.03700492 -0.02466994 -0.07400983       0.047
   0.03700492  0.03700492  0.03700492       0.016
   0.03700492  0.04933989  0.04933989       0.023
   0.03700492  0.00000000  0.00000000       0.012
   0.04933989 -0.01233497  0.00000000       0.047
   0.06167486 -0.02466994  0.00000000       0.047
   0.06167486 -0.01233497  0.01233497       0.047
  -0.02466994 -0.02466994 -0.08634480       0.047
   0.06167486  0.00000000  0.00000000       0.012
   0.07400983 -0.01233497  0.00000000       0.047
  -0.01233497 -0.01233497 -0.08634480       0.016
   0.08634480  0.00000000  0.00000000       0.012
 
 k-points in reciprocal lattice and weights: KPOINTS File, automatically generated by
   0.06250000  0.06250000  0.06250000       0.016
   0.18750000  0.06250000  0.06250000       0.047
   0.31250000  0.06250000  0.06250000       0.047
   0.43750000  0.06250000  0.06250000       0.023
  -0.06250000  0.06250000  0.06250000       0.012
   0.18750000  0.18750000  0.06250000       0.047
   0.31250000  0.18750000  0.06250000       0.094
  -0.18750000  0.18750000  0.06250000       0.047
   0.31250000  0.31250000  0.06250000       0.016
  -0.31250000  0.31250000  0.06250000       0.047
  -0.18750000  0.31250000  0.06250000       0.047
  -0.43750000  0.43750000  0.06250000       0.047
  -0.31250000  0.43750000  0.06250000       0.094
  -0.43750000 -0.43750000  0.06250000       0.047
  -0.31250000 -0.43750000  0.06250000       0.047
   0.18750000  0.18750000  0.18750000       0.016
   0.31250000  0.18750000  0.18750000       0.023
  -0.18750000  0.18750000  0.18750000       0.012
  -0.31250000  0.31250000  0.18750000       0.047
  -0.43750000  0.43750000  0.18750000       0.047
  -0.31250000  0.43750000  0.18750000       0.047
  -0.43750000 -0.43750000  0.18750000       0.047
  -0.31250000  0.31250000  0.31250000       0.012
  -0.43750000  0.43750000  0.31250000       0.047
  -0.43750000 -0.43750000  0.31250000       0.016
  -0.43750000  0.43750000  0.43750000       0.012
 
 position of ions in fractional coordinates (direct lattice) 
   0.62805694  0.25000000  0.87805694
   0.87194306  0.75000000  0.62194306
   0.37805694  0.62805694  0.75000000
   0.12194306  0.87194306  0.25000000
   0.75000000  0.12194306  0.37194306
   0.25000000  0.37805694  0.12805694
   0.62805694  0.37805694  0.25000000
   0.87194306  0.12194306  0.75000000
   0.37805694  0.75000000  0.12805694
   0.12194306  0.25000000  0.37194306
   0.75000000  0.62805694  0.87805694
   0.25000000  0.87194306  0.62194306
   0.75000000  0.00000000  0.00000000
   0.75000000  0.75000000  0.25000000
   0.50000000  0.75000000  0.50000000
   0.00000000  0.50000000  0.25000000
   0.46607827  0.00000000  0.00000000
   0.03392173  0.03392173  0.53392173
   0.50000000  0.46607827  0.50000000
   0.00000000  0.50000000  0.96607827
   0.46607827  0.46607827  0.96607827
   0.03392173  0.00000000  0.00000000
   0.50000000  0.03392173  0.50000000
   0.00000000  0.50000000  0.53392173
 
 position of ions in cartesian coordinates  (Angst):
   2.53344717  6.36459630  0.00000000
   2.53344717  3.76919237  5.06689434
   5.06689434  2.53344717  1.29770197
   5.06689434 -2.53344717  3.76919237
  -1.29770197  5.06689434  2.53344717
   1.29770197  0.00000000  2.53344717
   0.00000000  2.53344717  3.83114914
   0.00000000  7.60034151  1.23574520
   2.53344717 -1.23574520  5.06689434
   2.53344717  1.23574520  0.00000000
   3.83114914  5.06689434  2.53344717
   6.30263954  0.00000000  2.53344717
  -3.80017075  3.80017075  3.80017075
   1.26672358  1.26672358  6.33361792
   3.80017075  1.26672358  3.80017075
   3.80017075 -1.26672358  1.26672358
  -2.36156936  2.36156936  2.36156936
   2.70532498  2.70532498 -2.36156936
   2.36156936  2.70532498  2.36156936
   7.42846369  2.36156936 -2.36156936
   4.89501653  4.89501653 -0.17187781
  -0.17187781  0.17187781  0.17187781
   0.17187781  4.89501653  0.17187781
   5.23877215  0.17187781 -0.17187781
 


--------------------------------------------------------------------------------------------------------


 k-point  1 :  0.06250.06250.0625  plane waves:   7749
 k-point  2 :  0.18750.06250.0625  plane waves:   7733
 k-point  3 :  0.31250.06250.0625  plane waves:   7745
 k-point  4 :  0.43750.06250.0625  plane waves:   7726
 k-point  5 :  -.06250.06250.0625  plane waves:   7779
 k-point  6 :  0.18750.18750.0625  plane waves:   7739
 k-point  7 :  0.31250.18750.0625  plane waves:   7722
 k-point  8 :  -.18750.18750.0625  plane waves:   7750
 k-point  9 :  0.31250.31250.0625  plane waves:   7725
 k-point 10 :  -.31250.31250.0625  plane waves:   7724
 k-point 11 :  -.18750.31250.0625  plane waves:   7751
 k-point 12 :  -.43750.43750.0625  plane waves:   7719
 k-point 13 :  -.31250.43750.0625  plane waves:   7725
 k-point 14 :  -.4375-.43750.0625  plane waves:   7723
 k-point 15 :  -.3125-.43750.0625  plane waves:   7736
 k-point 16 :  0.18750.18750.1875  plane waves:   7701
 k-point 17 :  0.31250.18750.1875  plane waves:   7692
 k-point 18 :  -.18750.18750.1875  plane waves:   7731
 k-point 19 :  -.31250.31250.1875  plane waves:   7749
 k-point 20 :  -.43750.43750.1875  plane waves:   7726
 k-point 21 :  -.31250.43750.1875  plane waves:   7719
 k-point 22 :  -.4375-.43750.1875  plane waves:   7724
 k-point 23 :  -.31250.31250.3125  plane waves:   7744
 k-point 24 :  -.43750.43750.3125  plane waves:   7725
 k-point 25 :  -.4375-.43750.3125  plane waves:   7725
 k-point 26 :  -.43750.43750.4375  plane waves:   7704

 maximum and minimum number of plane-waves per node :    515   453

 maximum number of plane-waves:   7779
 maximal index in each direction: 
   IXMAX= 13   IYMAX= 13   IZMAX= 13
   IXMIN=-13   IYMIN=-13   IZMIN=-13

 NGX is ok and might be reduce to  54
 NGY is ok and might be reduce to  54
 NGZ is ok and might be reduce to  54

 parallel 3dFFT wavefunction:
    minimum data exchange during FFTs selected (reduces bandwidth)
 parallel 3dFFT charge:
    minimum data exchange during FFTs selected (reduces bandwidth)

 For storing wavefunctions  553.11 MBYTES are necessary
 For predicting wavefunctions   45.88 MBYTES are necessary
Broyden mixing: mesh for mixing (old mesh)
   NGX = 27   NGY = 27   NGZ = 27
  (NGX  = 80   NGY  = 80   NGZ  = 80)
 gives a total of  19683 points
 initial charge density was supplied:
 charge density of overlapping atoms calculated
 number of electron  224.0000000 magnetization 
 keeping initial charge density in first step


--------------------------------------------------------------------------------------------------------


 Maximum index for augmentation-charges          411 (set IRDMAX)


--------------------------------------------------------------------------------------------------------


 First call to EWALD:  gamma=   0.220
 Maximum number of real-space cells 3x 3x 3
 Maximum number of reciprocal cells 3x 3x 3

    FEWALD:  VPU time    0.01: CPU time    0.01


----------------------------------------- Iteration    1(   1)  ---------------------------------------


    POTLOK:  VPU time    0.03: CPU time    0.06
    SETDIJ:  VPU time    0.02: CPU time    0.02
    EDDAV :  VPU time   33.94: CPU time   34.00
 BZINTS: Fermi energy: 12.443111;224.000000 electrons
         Band energy:1188.491784;  BLOECHL correction: -0.029270
    DOS   :  VPU time    0.00: CPU time   -0.00
    ------------------------------------------
      LOOP:  VPU time   34.60: CPU time   34.97

 eigenvalue-minimisations  :  8944
 total energy-change (2. order) : 0.1659083E+04  (-0.8212138E+04)
 number of electron  224.0000000 magnetization 
 augmentation part   224.0000000 magnetization 

 Free energy of the ion-electron system (eV)
  ---------------------------------------------------
  alpha Z        PSCENC =      1327.17376516
  Ewald energy   TEWEN  =    -15355.28199406
  -1/2 Hartree   DENC   =     -4749.84714834
  -V(xc)+E(xc)   XCENC  =       -77.18116586
  PAW double counting   =     14281.06205413   -13163.82235335
  entropy T*S    EENTRO =         0.00000000
  eigenvalues    EBANDS =      1188.49178440
  atomic energy  EATOM  =     18208.48778806
  ---------------------------------------------------
  free energy    TOTEN  =      1659.08273014 eV

  energy without entropy =     1659.08273014  energy(sigma->0) =     1659.08273014


--------------------------------------------------------------------------------------------------------




----------------------------------------- Iteration    1(   2)  ---------------------------------------


    EDDAV :  VPU time   47.52: CPU time   47.80
 BZINTS: Fermi energy:  2.920334;224.000000 electrons
         Band energy:-413.246834;  BLOECHL correction:  0.000000
    DOS   :  VPU time    0.00: CPU time   -0.00
    ------------------------------------------
      LOOP:  VPU time   47.89: CPU time   48.61

 eigenvalue-minimisations  :  9520
 total energy-change (2. order) :-0.1601739E+04  (-0.1480933E+04)
 number of electron  224.0000000 magnetization 
 augmentation part   224.0000000 magnetization 

 Free energy of the ion-electron system (eV)
  ---------------------------------------------------
  alpha Z        PSCENC =      1327.17376516
  Ewald energy   TEWEN  =    -15355.28199406
  -1/2 Hartree   DENC   =     -4749.84714834
  -V(xc)+E(xc)   XCENC  =       -77.18116586
  PAW double counting   =     14281.06205413   -13163.82235335
  entropy T*S    EENTRO =         0.00000000
  eigenvalues    EBANDS =      -413.24683385
  atomic energy  EATOM  =     18208.48778806
  ---------------------------------------------------
  free energy    TOTEN  =        57.34411189 eV

  energy without entropy =       57.34411189  energy(sigma->0) =       57.34411189


--------------------------------------------------------------------------------------------------------




----------------------------------------- Iteration    1(   3)  ---------------------------------------


    EDDAV :  VPU time   44.83: CPU time   44.92
 BZINTS: Fermi energy:  2.050160;224.000000 electrons
         Band energy:-514.293269;  BLOECHL correction:  0.000000
    DOS   :  VPU time    0.00: CPU time   -0.00
    ------------------------------------------
      LOOP:  VPU time   45.22: CPU time   45.54

 eigenvalue-minimisations  : 10192
 total energy-change (2. order) :-0.1010464E+03  (-0.9963520E+02)
 number of electron  224.0000000 magnetization 
 augmentation part   224.0000000 magnetization 

 Free energy of the ion-electron system (eV)
  ---------------------------------------------------
  alpha Z        PSCENC =      1327.17376516
  Ewald energy   TEWEN  =    -15355.28199406
  -1/2 Hartree   DENC   =     -4749.84714834
  -V(xc)+E(xc)   XCENC  =       -77.18116586
  PAW double counting   =     14281.06205413   -13163.82235335
  entropy T*S    EENTRO =         0.00000000
  eigenvalues    EBANDS =      -514.29326918
  atomic energy  EATOM  =     18208.48778806
  ---------------------------------------------------
  free energy    TOTEN  =       -43.70232343 eV

  energy without entropy =      -43.70232343  energy(sigma->0) =      -43.70232343


--------------------------------------------------------------------------------------------------------




----------------------------------------- Iteration    1(   4)  ---------------------------------------


    EDDAV :  VPU time   47.41: CPU time   47.51
 BZINTS: Fermi energy:  2.048285;224.000000 electrons
         Band energy:-515.213380;  BLOECHL correction:  0.000000
    DOS   :  VPU time    0.00: CPU time   -0.00
    ------------------------------------------
      LOOP:  VPU time   47.84: CPU time   48.19

 eigenvalue-minimisations  :  9832
 total energy-change (2. order) :-0.9201112E+00  (-0.9182613E+00)
 number of electron  224.0000000 magnetization 
 augmentation part   224.0000000 magnetization 

 Free energy of the ion-electron system (eV)
  ---------------------------------------------------
  alpha Z        PSCENC =      1327.17376516
  Ewald energy   TEWEN  =    -15355.28199406
  -1/2 Hartree   DENC   =     -4749.84714834
  -V(xc)+E(xc)   XCENC  =       -77.18116586
  PAW double counting   =     14281.06205413   -13163.82235335
  entropy T*S    EENTRO =         0.00000000
  eigenvalues    EBANDS =      -515.21338039
  atomic energy  EATOM  =     18208.48778806
  ---------------------------------------------------
  free energy    TOTEN  =       -44.62243465 eV

  energy without entropy =      -44.62243465  energy(sigma->0) =      -44.62243465


--------------------------------------------------------------------------------------------------------




----------------------------------------- Iteration    1(   5)  ---------------------------------------


    EDDAV :  VPU time   42.36: CPU time   42.44
 BZINTS: Fermi energy:  2.048285;224.000000 electrons
         Band energy:-515.216928;  BLOECHL correction:  0.000000
    DOS   :  VPU time    0.00: CPU time   -0.00
    CHARGE:  VPU time    1.14: CPU time    1.15
    MIXING:  VPU time    0.00: CPU time    0.00
    ------------------------------------------
      LOOP:  VPU time   43.90: CPU time   44.25

 eigenvalue-minimisations  :  9960
 total energy-change (2. order) :-0.3547376E-02  (-0.3547119E-02)
 number of electron  223.9999874 magnetization 
 augmentation part    70.3791076 magnetization 

 Broyden mixing:
  rms(total) = 0.75735E+00    rms(broyden)= 0.75715E+00
  rms(prec ) = 0.12702E+01
  weight for this iteration     100.00

 Free energy of the ion-electron system (eV)
  ---------------------------------------------------
  alpha Z        PSCENC =      1327.17376516
  Ewald energy   TEWEN  =    -15355.28199406
  -1/2 Hartree   DENC   =     -4749.84714834
  -V(xc)+E(xc)   XCENC  =       -77.18116586
  PAW double counting   =     14281.06205413   -13163.82235335
  entropy T*S    EENTRO =         0.00000000
  eigenvalues    EBANDS =      -515.21692777
  atomic energy  EATOM  =     18208.48778806
  ---------------------------------------------------
  free energy    TOTEN  =       -44.62598202 eV

  energy without entropy =      -44.62598202  energy(sigma->0) =      -44.62598202


--------------------------------------------------------------------------------------------------------




----------------------------------------- Iteration    1(   6)  ---------------------------------------


    POTLOK:  VPU time    0.09: CPU time    0.10
    SETDIJ:  VPU time    0.03: CPU time    0.03
    EDDAV :  VPU time   56.01: CPU time   56.10
 BZINTS: Fermi energy:  2.168309;224.000000 electrons
         Band energy:-568.688208;  BLOECHL correction:  0.000000
    DOS   :  VPU time    0.00: CPU time   -0.00
    CHARGE:  VPU time    1.14: CPU time    1.14
    MIXING:  VPU time    0.00: CPU time    0.00
    ------------------------------------------
      LOOP:  VPU time   57.66: CPU time   58.61

 eigenvalue-minimisations  : 11000
 total energy-change (2. order) : 0.1499249E+01  (-0.2853975E+00)
 number of electron  223.9999874 magnetization 
 augmentation part    71.5146775 magnetization 

 Broyden mixing:
  rms(total) = 0.23646E+00    rms(broyden)= 0.23643E+00
  rms(prec ) = 0.35502E+00
  weight for this iteration     100.00

 eigenvalues of (default mixing * dielectric matrix)
  average eigenvalue GAMMA=   1.2251
  1.2251

 Free energy of the ion-electron system (eV)
  ---------------------------------------------------
  alpha Z        PSCENC =      1327.17376516
  Ewald energy   TEWEN  =    -15355.28199406
  -1/2 Hartree   DENC   =     -4695.32985771
  -V(xc)+E(xc)   XCENC  =       -78.22638880
  PAW double counting   =     14444.37731370   -13325.63915173
  entropy T*S    EENTRO =         0.00000000
  eigenvalues    EBANDS =      -568.68820763
  atomic energy  EATOM  =     18208.48778806
  ---------------------------------------------------
  free energy    TOTEN  =       -43.12673301 eV

  energy without entropy =      -43.12673301  energy(sigma->0) =      -43.12673301


--------------------------------------------------------------------------------------------------------




----------------------------------------- Iteration    1(   7)  ---------------------------------------


    POTLOK:  VPU time    0.04: CPU time    0.04
    SETDIJ:  VPU time    0.01: CPU time    0.01
    EDDAV :  VPU time   37.22: CPU time   37.29
 BZINTS: Fermi energy:  2.198315;224.000000 electrons
         Band energy:-570.744079;  BLOECHL correction:  0.000000
    DOS   :  VPU time    0.00: CPU time   -0.00
    CHARGE:  VPU time    1.14: CPU time    1.14
    MIXING:  VPU time    0.00: CPU time    0.00
    ------------------------------------------
      LOOP:  VPU time   38.81: CPU time   40.95

 eigenvalue-minimisations  :  9528
 total energy-change (2. order) :-0.6840245E-01  (-0.1122987E+00)
 number of electron  223.9999873 magnetization 
 augmentation part    71.7475111 magnetization 

 Broyden mixing:
  rms(total) = 0.14543E+00    rms(broyden)= 0.14542E+00
  rms(prec ) = 0.20484E+00
  weight for this iteration     100.00

 eigenvalues of (default mixing * dielectric matrix)
  average eigenvalue GAMMA=   1.3815
  0.9797  1.7833

 Free energy of the ion-electron system (eV)
  ---------------------------------------------------
  alpha Z        PSCENC =      1327.17376516
  Ewald energy   TEWEN  =    -15355.28199406
  -1/2 Hartree   DENC   =     -4694.35097502
  -V(xc)+E(xc)   XCENC  =       -77.97701887
  PAW double counting   =     14623.56604264   -13504.06866442
  entropy T*S    EENTRO =         0.00000000
  eigenvalues    EBANDS =      -570.74407895
  atomic energy  EATOM  =     18208.48778806
  ---------------------------------------------------
  free energy    TOTEN  =       -43.19513547 eV

  energy without entropy =      -43.19513547  energy(sigma->0) =      -43.19513547


--------------------------------------------------------------------------------------------------------




----------------------------------------- Iteration    1(   8)  ---------------------------------------


    POTLOK:  VPU time    0.04: CPU time    0.04
    SETDIJ:  VPU time    0.01: CPU time    0.01
    EDDAV :  VPU time   39.14: CPU time   39.26
 BZINTS: Fermi energy:  2.200190;224.000000 electrons
         Band energy:-565.358715;  BLOECHL correction:  0.000000
    DOS   :  VPU time    0.00: CPU time   -0.00
    CHARGE:  VPU time    1.18: CPU time    1.18
    MIXING:  VPU time    0.00: CPU time    0.00
    ------------------------------------------
      LOOP:  VPU time   40.74: CPU time   41.65

 eigenvalue-minimisations  :  9976
 total energy-change (2. order) :-0.9533738E-02  (-0.9304630E-02)
 number of electron  223.9999873 magnetization 
 augmentation part    71.6298809 magnetization 

 Broyden mixing:
  rms(total) = 0.67255E-01    rms(broyden)= 0.67250E-01
  rms(prec ) = 0.92267E-01
  weight for this iteration     100.00

 eigenvalues of (default mixing * dielectric matrix)
  average eigenvalue GAMMA=   1.5044
  2.5826  0.9653  0.9653

 Free energy of the ion-electron system (eV)
  ---------------------------------------------------
  alpha Z        PSCENC =      1327.17376516
  Ewald energy   TEWEN  =    -15355.28199406
  -1/2 Hartree   DENC   =     -4701.13177429
  -V(xc)+E(xc)   XCENC  =       -77.52315130
  PAW double counting   =     14781.47322991   -13661.04381813
  entropy T*S    EENTRO =         0.00000000
  eigenvalues    EBANDS =      -565.35871456
  atomic energy  EATOM  =     18208.48778806
  ---------------------------------------------------
  free energy    TOTEN  =       -43.20466920 eV

  energy without entropy =      -43.20466920  energy(sigma->0) =      -43.20466920


--------------------------------------------------------------------------------------------------------




----------------------------------------- Iteration    1(   9)  ---------------------------------------


    POTLOK:  VPU time    0.13: CPU time    0.13
    SETDIJ:  VPU time    0.03: CPU time    0.03
    EDDAV :  VPU time   49.51: CPU time   49.62
 BZINTS: Fermi energy:  2.213318;224.000000 electrons
         Band energy:-567.440663;  BLOECHL correction:  0.000000
    DOS   :  VPU time    0.00: CPU time   -0.00
    CHARGE:  VPU time    1.22: CPU time    1.22
    MIXING:  VPU time    0.00: CPU time    0.00
    ------------------------------------------
      LOOP:  VPU time   51.28: CPU time   52.34

 eigenvalue-minimisations  :  9560
 total energy-change (2. order) :-0.6220647E-02  (-0.1466497E-02)
 number of electron  223.9999873 magnetization 
 augmentation part    71.6636687 magnetization 

 Broyden mixing:
  rms(total) = 0.11170E-01    rms(broyden)= 0.11163E-01
  rms(prec ) = 0.16267E-01
  weight for this iteration     100.00

 eigenvalues of (default mixing * dielectric matrix)
  average eigenvalue GAMMA=   1.4528
  2.5872  0.9809  0.9809  1.2621

 Free energy of the ion-electron system (eV)
  ---------------------------------------------------
  alpha Z        PSCENC =      1327.17376516
  Ewald energy   TEWEN  =    -15355.28199406
  -1/2 Hartree   DENC   =     -4700.43887820
  -V(xc)+E(xc)   XCENC  =       -77.35398468
  PAW double counting   =     14873.43758447   -13751.79450757
  entropy T*S    EENTRO =         0.00000000
  eigenvalues    EBANDS =      -567.44066302
  atomic energy  EATOM  =     18208.48778806
  ---------------------------------------------------
  free energy    TOTEN  =       -43.21088985 eV

  energy without entropy =      -43.21088985  energy(sigma->0) =      -43.21088985


--------------------------------------------------------------------------------------------------------




----------------------------------------- Iteration    1(  10)  ---------------------------------------


    POTLOK:  VPU time    0.04: CPU time    0.04
    SETDIJ:  VPU time    0.01: CPU time    0.01
    EDDAV :  VPU time   45.66: CPU time   45.77
 BZINTS: Fermi energy:  2.213318;224.000000 electrons
         Band energy:-567.429091;  BLOECHL correction:  0.000000
    DOS   :  VPU time    0.00: CPU time   -0.00
    CHARGE:  VPU time    1.22: CPU time    1.22
    MIXING:  VPU time    0.00: CPU time    0.00
    ------------------------------------------
      LOOP:  VPU time   47.32: CPU time   48.16

 eigenvalue-minimisations  :  9776
 total energy-change (2. order) :-0.6253297E-03  (-0.1857827E-03)
 number of electron  223.9999873 magnetization 
 augmentation part    71.6622600 magnetization 

 Broyden mixing:
  rms(total) = 0.70197E-02    rms(broyden)= 0.70174E-02
  rms(prec ) = 0.93204E-02
  weight for this iteration     100.00

 eigenvalues of (default mixing * dielectric matrix)
  average eigenvalue GAMMA=   1.6470
  2.8836  2.4482  0.9930  0.9930  0.9172

 Free energy of the ion-electron system (eV)
  ---------------------------------------------------
  alpha Z        PSCENC =      1327.17376516
  Ewald energy   TEWEN  =    -15355.28199406
  -1/2 Hartree   DENC   =     -4700.82955200
  -V(xc)+E(xc)   XCENC  =       -77.32169261
  PAW double counting   =     14878.34516297   -13756.35590178
  entropy T*S    EENTRO =         0.00000000
  eigenvalues    EBANDS =      -567.42909091
  atomic energy  EATOM  =     18208.48778806
  ---------------------------------------------------
  free energy    TOTEN  =       -43.21151518 eV

  energy without entropy =      -43.21151518  energy(sigma->0) =      -43.21151518


--------------------------------------------------------------------------------------------------------




----------------------------------------- Iteration    1(  11)  ---------------------------------------


    POTLOK:  VPU time    0.11: CPU time    0.11
    SETDIJ:  VPU time    0.04: CPU time    0.04
    EDDAV :  VPU time   48.61: CPU time   48.70
 BZINTS: Fermi energy:  2.213318;224.000000 electrons
         Band energy:-567.352096;  BLOECHL correction:  0.000000
    DOS   :  VPU time    0.00: CPU time   -0.00
    CHARGE:  VPU time    1.27: CPU time    1.27
    MIXING:  VPU time    0.00: CPU time    0.00
    ------------------------------------------
      LOOP:  VPU time   50.39: CPU time   51.27

 eigenvalue-minimisations  :  7440
 total energy-change (2. order) :-0.2365273E-03  (-0.2384980E-04)
 number of electron  223.9999873 magnetization 
 augmentation part    71.6626360 magnetization 

 Broyden mixing:
  rms(total) = 0.15116E-02    rms(broyden)= 0.15110E-02
  rms(prec ) = 0.26017E-02
  weight for this iteration     100.00

 eigenvalues of (default mixing * dielectric matrix)
  average eigenvalue GAMMA=   1.5505
  2.7958  2.4058  1.2392  1.0142  1.0142  0.8340

 Free energy of the ion-electron system (eV)
  ---------------------------------------------------
  alpha Z        PSCENC =      1327.17376516
  Ewald energy   TEWEN  =    -15355.28199406
  -1/2 Hartree   DENC   =     -4701.32265467
  -V(xc)+E(xc)   XCENC  =       -77.29520830
  PAW double counting   =     14881.05590008   -13758.67725165
  entropy T*S    EENTRO =         0.00000000
  eigenvalues    EBANDS =      -567.35209633
  atomic energy  EATOM  =     18208.48778806
  ---------------------------------------------------
  free energy    TOTEN  =       -43.21175171 eV

  energy without entropy =      -43.21175171  energy(sigma->0) =      -43.21175171


--------------------------------------------------------------------------------------------------------




----------------------------------------- Iteration    1(  12)  ---------------------------------------


    POTLOK:  VPU time    0.04: CPU time    0.05
    SETDIJ:  VPU time    0.01: CPU time    0.01
    EDDAV :  VPU time   32.24: CPU time   32.30
 BZINTS: Fermi energy:  2.213318;224.000000 electrons
         Band energy:-567.207105;  BLOECHL correction:  0.000000
    DOS   :  VPU time    0.00: CPU time   -0.00
    ------------------------------------------
      LOOP:  VPU time   32.66: CPU time   33.11

 eigenvalue-minimisations  :  5952
 total energy-change (2. order) :-0.2647350E-05  (-0.2846555E-05)
 number of electron  223.9999873 magnetization 
 augmentation part    71.6626360 magnetization 

 Free energy of the ion-electron system (eV)
  ---------------------------------------------------
  alpha Z        PSCENC =      1327.17376516
  Ewald energy   TEWEN  =    -15355.28199406
  -1/2 Hartree   DENC   =     -4701.53566938
  -V(xc)+E(xc)   XCENC  =       -77.28843485
  PAW double counting   =     14880.65639132   -13758.21649560
  entropy T*S    EENTRO =         0.00000000
  eigenvalues    EBANDS =      -567.20710501
  atomic energy  EATOM  =     18208.48778806
  ---------------------------------------------------
  free energy    TOTEN  =       -43.21175435 eV

  energy without entropy =      -43.21175435  energy(sigma->0) =      -43.21175435


--------------------------------------------------------------------------------------------------------




 average (electrostatic) potential at core
  the test charge radii are     1.1249  1.2098  1.0808
  (the norm of the test charge is              1.0000)
       1 -40.4829       2 -40.4829       3 -40.4829       4 -40.4829       5 -40.4829
       6 -40.4829       7 -40.4829       8 -40.4829       9 -40.4829      10 -40.4829
      11 -40.4829      12 -40.4829      13 -47.7408      14 -47.7408      15 -47.7408
      16 -47.7408      17 -55.7496      18 -55.7496      19 -55.7496      20 -55.7496
      21 -55.7496      22 -55.7496      23 -55.7496      24 -55.7496
 
 
 
 E-fermi :   2.2133     XC(G=0): -10.4059     alpha+bet : -7.9985
   add alpha+bet to get absolut eigen values

 k-point   1 :       0.0625    0.0625    0.0625
  band No.  band energies     occupation 
      1     -10.6450      2.00000
      2     -10.3689      2.00000
      3     -10.3547      2.00000
      4     -10.3412      2.00000
      5     -10.0698      2.00000
      6     -10.0485      2.00000
      7     -10.0386      2.00000
      8      -9.9500      2.00000
      9      -3.7585      2.00000
     10      -3.6976      2.00000
     11      -3.6832      2.00000
     12      -3.6591      2.00000
     13      -3.6406      2.00000
     14      -3.6199      2.00000
     15      -3.6137      2.00000
     16      -3.5888      2.00000
     17      -3.5861      2.00000
     18      -3.5831      2.00000
     19      -3.5650      2.00000
     20      -3.5173      2.00000
     21      -3.5140      2.00000
     22      -3.5086      2.00000
     23      -3.2572      2.00000
     24      -3.2369      2.00000
     25      -3.2309      2.00000
     26      -3.2094      2.00000
     27      -3.1875      2.00000
     28      -3.1768      2.00000
     29      -3.1483      2.00000
     30      -3.1332      2.00000
     31      -3.0682      2.00000
     32      -3.0605      2.00000
     33      -2.9816      2.00000
     34      -2.9731      2.00000
     35      -2.9624      2.00000
     36      -2.9334      2.00000
     37      -2.9090      2.00000
     38      -2.8487      2.00000
     39      -2.8475      2.00000
     40      -2.8243      2.00000
     41      -2.8124      2.00000
     42      -2.7917      2.00000
     43      -2.7864      2.00000
     44      -2.7636      2.00000
     45      -2.7294      2.00000
     46      -2.7045      2.00000
     47      -2.6781      2.00000
     48      -2.6714      2.00000
     49      -2.6466      2.00000
     50      -2.6326      2.00000
     51      -2.6027      2.00000
     52      -2.5919      2.00000
     53      -2.5600      2.00000
     54      -2.5542      2.00000
     55      -2.5506      2.00000
     56      -2.5272      2.00000
     57      -2.4928      2.00000
     58      -2.4873      2.00000
     59      -2.4488      2.00000
     60      -2.3839      2.00000
     61      -2.3699      2.00000
     62      -2.3479      2.00000
     63      -2.3109      2.00000
     64      -2.3026      2.00000
     65      -2.2960      2.00000
     66      -2.2776      2.00000
     67      -2.2673      2.00000
     68      -2.2235      2.00000
     69      -2.2196      2.00000
     70      -2.2158      2.00000
     71      -2.2059      2.00000
     72      -2.1842      2.00000
     73      -2.1748      2.00000
     74      -2.1572      2.00000
     75      -1.9100      2.00000
     76      -1.9071      2.00000
     77      -1.8898      2.00000
     78      -1.8094      2.00000
     79      -1.7978      2.00000
     80      -1.7746      2.00000
     81      -1.7205      2.00000
     82      -1.6900      2.00000
     83      -1.6412      2.00000
     84      -1.5961      2.00000
     85      -1.5873      2.00000
     86      -1.5566      2.00000
     87      -1.4511      2.00000
     88      -1.4267      2.00000
     89      -1.4070      2.00000
     90      -1.3622      2.00000
     91      -1.3247      2.00000
     92      -1.2573      2.00000
     93      -0.9861      2.00000
     94      -0.9525      2.00000
     95       0.2319      2.00000
     96       0.3375      2.00000
     97       0.5024      2.00000
     98       0.6872      2.00000
     99       0.8273      2.00000
    100       0.8632      2.00000
    101       0.9409      2.00000
    102       0.9865      2.00000
    103       1.0692      2.00000
    104       1.2580      2.00000
    105       1.3580      2.00000
    106       1.4608      2.00000
    107       1.5085      2.00000
    108       1.7263      2.00000
    109       1.8852      2.00000
    110       1.9583      2.00000
    111       2.1636      2.00000
    112       2.1674      2.00000
    113       3.0007      0.00000
    114       3.5985      0.00000
    115       3.6538      0.00000
    116       3.7710      0.00000
    117       3.8404      0.00000
    118       3.8734      0.00000
    119       4.3351      0.00000
    120       4.4572      0.00000
    121       4.5613      0.00000
    122       5.6188      0.00000
    123       5.9806      0.00000
    124       6.1159      0.00000
    125       6.3655      0.00000
    126       6.9051      0.00000
    127       6.9414      0.00000
    128       7.6005      0.00000
    129       7.9688      0.00000
    130       8.2899      0.00000
    131       8.3627      0.00000
    132       8.5628      0.00000
    133       8.6315      0.00000
    134       8.6864      0.00000
    135       8.8890      0.00000
    136       9.1156      0.00000
    137       9.1411      0.00000
    138       9.5083      0.00000
    139       9.5862      0.00000
    140       9.6969      0.00000
    141       9.8357      0.00000
    142      10.0206      0.00000
    143      10.1590      0.00000
    144      10.1816      0.00000
    145      10.2800      0.00000
    146      10.3088      0.00000
    147      10.5072      0.00000
    148      10.8160      0.00000
    149      10.9240      0.00000
    150      11.0104      0.00000
    151      11.0446      0.00000
    152      11.3414      0.00000
    153      11.3465      0.00000
    154      11.4616      0.00000
    155      11.5738      0.00000
    156      11.6072      0.00000
    157      11.8410      0.00000
    158      11.8657      0.00000
    159      12.0490      0.00000
    160      12.1165      0.00000
    161      12.1870      0.00000
    162      12.4870      0.00000
    163      12.5722      0.00000
    164      13.0016      0.00000
    165      13.0120      0.00000
    166      13.2077      0.00000
    167      13.4942      0.00000
    168      13.6717      0.00000
    169      13.7524      0.00000
    170      13.8617      0.00000
    171      13.8743      0.00000
    172      14.0307      0.00000

 k-point   2 :       0.1875    0.0625    0.0625
  band No.  band energies     occupation 
      1     -10.6014      2.00000
      2     -10.3825      2.00000
      3     -10.3558      2.00000
      4     -10.3191      2.00000
      5     -10.1107      2.00000
      6     -10.0555      2.00000
      7     -10.0374      2.00000
      8      -9.9721      2.00000
      9      -3.7209      2.00000
     10      -3.6978      2.00000
     11      -3.6860      2.00000
     12      -3.6587      2.00000
     13      -3.6310      2.00000
     14      -3.6183      2.00000
     15      -3.5907      2.00000
     16      -3.5626      2.00000
     17      -3.5581      2.00000
     18      -3.5364      2.00000
     19      -3.5088      2.00000
     20      -3.4928      2.00000
     21      -3.4671      2.00000
     22      -3.4429      2.00000
     23      -3.3439      2.00000
     24      -3.3138      2.00000
     25      -3.2391      2.00000
     26      -3.1925      2.00000
     27      -3.1729      2.00000
     28      -3.1630      2.00000
     29      -3.1266      2.00000
     30      -3.1159      2.00000
     31      -3.0985      2.00000
     32      -3.0596      2.00000
     33      -3.0165      2.00000
     34      -2.9922      2.00000
     35      -2.9859      2.00000
     36      -2.9508      2.00000
     37      -2.9209      2.00000
     38      -2.8973      2.00000
     39      -2.8877      2.00000
     40      -2.8746      2.00000
     41      -2.8461      2.00000
     42      -2.8298      2.00000
     43      -2.8125      2.00000
     44      -2.7677      2.00000
     45      -2.7403      2.00000
     46      -2.7103      2.00000
     47      -2.6952      2.00000
     48      -2.6716      2.00000
     49      -2.6430      2.00000
     50      -2.5999      2.00000
     51      -2.5889      2.00000
     52      -2.5811      2.00000
     53      -2.5554      2.00000
     54      -2.5522      2.00000
     55      -2.5402      2.00000
     56      -2.5199      2.00000
     57      -2.4875      2.00000
     58      -2.4800      2.00000
     59      -2.4680      2.00000
     60      -2.3968      2.00000
     61      -2.3889      2.00000
     62      -2.3780      2.00000
     63      -2.3444      2.00000
     64      -2.3215      2.00000
     65      -2.3128      2.00000
     66      -2.2699      2.00000
     67      -2.2641      2.00000
     68      -2.2319      2.00000
     69      -2.2080      2.00000
     70      -2.1953      2.00000
     71      -2.1754      2.00000
     72      -2.1147      2.00000
     73      -2.0950      2.00000
     74      -2.0775      2.00000
     75      -2.0014      2.00000
     76      -1.9239      2.00000
     77      -1.9141      2.00000
     78      -1.8566      2.00000
     79      -1.8213      2.00000
     80      -1.7778      2.00000
     81      -1.7159      2.00000
     82      -1.6674      2.00000
     83      -1.6076      2.00000
     84      -1.5837      2.00000
     85      -1.5669      2.00000
     86      -1.5072      2.00000
     87      -1.4505      2.00000
     88      -1.3854      2.00000
     89      -1.3658      2.00000
     90      -1.2938      2.00000
     91      -1.1886      2.00000
     92      -1.0942      2.00000
     93      -0.9017      2.00000
     94      -0.7219      2.00000
     95      -0.0336      2.00000
     96       0.2400      2.00000
     97       0.3515      2.00000
     98       0.5007      2.00000
     99       0.6238      2.00000
    100       0.6574      2.00000
    101       0.8174      2.00000
    102       0.9288      2.00000
    103       0.9507      2.00000
    104       1.1076      2.00000
    105       1.2046      2.00000
    106       1.3337      2.00000
    107       1.3990      2.00000
    108       1.6370      2.00000
    109       1.8019      2.00000
    110       1.9098      2.00000
    111       2.0030      2.00000
    112       2.1530      2.00000
    113       3.3489      0.00000
    114       3.8603      0.00000
    115       4.1042      0.00000
    116       4.1316      0.00000
    117       4.2137      0.00000
    118       4.3199      0.00000
    119       4.5288      0.00000
    120       4.7305      0.00000
    121       4.9318      0.00000
    122       5.8119      0.00000
    123       6.0148      0.00000
    124       6.1902      0.00000
    125       6.6595      0.00000
    126       6.7201      0.00000
    127       6.8902      0.00000
    128       7.1591      0.00000
    129       7.5638      0.00000
    130       7.8703      0.00000
    131       8.0301      0.00000
    132       8.1086      0.00000
    133       8.3010      0.00000
    134       8.4565      0.00000
    135       8.5898      0.00000
    136       8.7950      0.00000
    137       9.0111      0.00000
    138       9.2341      0.00000
    139       9.5548      0.00000
    140       9.6540      0.00000
    141       9.7022      0.00000
    142       9.8094      0.00000
    143      10.0332      0.00000
    144      10.2123      0.00000
    145      10.3010      0.00000
    146      10.3355      0.00000
    147      10.6891      0.00000
    148      10.7672      0.00000
    149      10.9239      0.00000
    150      11.1030      0.00000
    151      11.3360      0.00000
    152      11.4555      0.00000
    153      11.5434      0.00000
    154      11.6984      0.00000
    155      11.7113      0.00000
    156      11.8930      0.00000
    157      12.0058      0.00000
    158      12.1130      0.00000
    159      12.1655      0.00000
    160      12.4731      0.00000
    161      12.6251      0.00000
    162      12.7290      0.00000
    163      12.9093      0.00000
    164      12.9341      0.00000
    165      13.0484      0.00000
    166      13.1259      0.00000
    167      13.4007      0.00000
    168      13.5369      0.00000
    169      13.7186      0.00000
    170      13.7586      0.00000
    171      13.8697      0.00000
    172      13.9654      0.00000

 k-point   3 :       0.3125    0.0625    0.0625
  band No.  band energies     occupation 
      1     -10.5385      2.00000
      2     -10.4128      2.00000
      3     -10.3508      2.00000
      4     -10.3029      2.00000
      5     -10.1456      2.00000
      6     -10.0725      2.00000
      7     -10.0321      2.00000
      8      -9.9970      2.00000
      9      -3.7317      2.00000
     10      -3.6958      2.00000
     11      -3.6754      2.00000
     12      -3.6353      2.00000
     13      -3.6211      2.00000
     14      -3.5987      2.00000
     15      -3.5734      2.00000
     16      -3.5209      2.00000
     17      -3.5108      2.00000
     18      -3.4937      2.00000
     19      -3.4832      2.00000
     20      -3.4489      2.00000
     21      -3.4164      2.00000
     22      -3.4071      2.00000
     23      -3.3806      2.00000
     24      -3.3271      2.00000
     25      -3.2573      2.00000
     26      -3.2360      2.00000
     27      -3.1594      2.00000
     28      -3.1493      2.00000
     29      -3.1243      2.00000
     30      -3.1134      2.00000
     31      -3.0801      2.00000
     32      -3.0614      2.00000
     33      -3.0329      2.00000
     34      -3.0278      2.00000
     35      -2.9930      2.00000
     36      -2.9787      2.00000
     37      -2.9618      2.00000
     38      -2.9475      2.00000
     39      -2.9289      2.00000
     40      -2.8926      2.00000
     41      -2.8848      2.00000
     42      -2.8486      2.00000
     43      -2.8240      2.00000
     44      -2.7833      2.00000
     45      -2.7481      2.00000
     46      -2.7285      2.00000
     47      -2.7079      2.00000
     48      -2.6636      2.00000
     49      -2.6400      2.00000
     50      -2.6306      2.00000
     51      -2.6224      2.00000
     52      -2.6068      2.00000
     53      -2.5673      2.00000
     54      -2.5351      2.00000
     55      -2.5169      2.00000
     56      -2.4933      2.00000
     57      -2.4774      2.00000
     58      -2.4502      2.00000
     59      -2.4386      2.00000
     60      -2.4182      2.00000
     61      -2.3992      2.00000
     62      -2.3939      2.00000
     63      -2.3637      2.00000
     64      -2.3225      2.00000
     65      -2.3179      2.00000
     66      -2.2814      2.00000
     67      -2.2629      2.00000
     68      -2.2379      2.00000
     69      -2.1872      2.00000
     70      -2.1773      2.00000
     71      -2.1654      2.00000
     72      -2.1463      2.00000
     73      -2.0948      2.00000
     74      -2.0510      2.00000
     75      -1.9840      2.00000
     76      -1.9507      2.00000
     77      -1.9123      2.00000
     78      -1.8414      2.00000
     79      -1.8224      2.00000
     80      -1.7655      2.00000
     81      -1.7091      2.00000
     82      -1.6434      2.00000
     83      -1.6271      2.00000
     84      -1.5830      2.00000
     85      -1.5352      2.00000
     86      -1.4628      2.00000
     87      -1.4376      2.00000
     88      -1.3428      2.00000
     89      -1.2397      2.00000
     90      -1.1550      2.00000
     91      -1.0374      2.00000
     92      -0.9557      2.00000
     93      -0.8266      2.00000
     94      -0.4736      2.00000
     95      -0.2524      2.00000
     96       0.0115      2.00000
     97       0.1778      2.00000
     98       0.2778      2.00000
     99       0.3219      2.00000
    100       0.5309      2.00000
    101       0.6898      2.00000
    102       0.8512      2.00000
    103       0.8902      2.00000
    104       0.9818      2.00000
    105       1.0274      2.00000
    106       1.2581      2.00000
    107       1.3140      2.00000
    108       1.6049      2.00000
    109       1.7494      2.00000
    110       1.8262      2.00000
    111       1.9235      2.00000
    112       2.1435      2.00000
    113       3.6403      0.00000
    114       4.1796      0.00000
    115       4.5048      0.00000
    116       4.5358      0.00000
    117       4.6383      0.00000
    118       4.8355      0.00000
    119       4.8742      0.00000
    120       5.0191      0.00000
    121       5.3267      0.00000
    122       5.9442      0.00000
    123       6.0423      0.00000
    124       6.1938      0.00000
    125       6.3603      0.00000
    126       6.6918      0.00000
    127       6.8039      0.00000
    128       6.8998      0.00000
    129       7.1298      0.00000
    130       7.3493      0.00000
    131       7.5245      0.00000
    132       7.7796      0.00000
    133       7.9770      0.00000
    134       8.3448      0.00000
    135       8.4842      0.00000
    136       8.6282      0.00000
    137       8.9212      0.00000
    138       9.2372      0.00000
    139       9.4380      0.00000
    140       9.5211      0.00000
    141       9.6794      0.00000
    142       9.7517      0.00000
    143       9.9766      0.00000
    144      10.0988      0.00000
    145      10.3355      0.00000
    146      10.4919      0.00000
    147      10.7236      0.00000
    148      10.8206      0.00000
    149      10.9026      0.00000
    150      10.9791      0.00000
    151      11.1677      0.00000
    152      11.4186      0.00000
    153      11.6111      0.00000
    154      11.6483      0.00000
    155      11.8929      0.00000
    156      11.9607      0.00000
    157      12.0707      0.00000
    158      12.2235      0.00000
    159      12.2984      0.00000
    160      12.5674      0.00000
    161      12.7099      0.00000
    162      12.9937      0.00000
    163      13.1183      0.00000
    164      13.1870      0.00000
    165      13.3777      0.00000
    166      13.5714      0.00000
    167      13.6302      0.00000
    168      13.7628      0.00000
    169      13.7889      0.00000
    170      13.9055      0.00000
    171      13.9903      0.00000
    172      14.2359      0.00000

 k-point   4 :       0.4375    0.0625    0.0625
  band No.  band energies     occupation 
      1     -10.4837      2.00000
      2     -10.4532      2.00000
      3     -10.3465      2.00000
      4     -10.3007      2.00000
      5     -10.1544      2.00000
      6     -10.0845      2.00000
      7     -10.0262      2.00000
      8     -10.0104      2.00000
      9      -3.7383      2.00000
     10      -3.7079      2.00000
     11      -3.6625      2.00000
     12      -3.6185      2.00000
     13      -3.6095      2.00000
     14      -3.5936      2.00000
     15      -3.5521      2.00000
     16      -3.5284      2.00000
     17      -3.4924      2.00000
     18      -3.4760      2.00000
     19      -3.4603      2.00000
     20      -3.4371      2.00000
     21      -3.4330      2.00000
     22      -3.3891      2.00000
     23      -3.3822      2.00000
     24      -3.2800      2.00000
     25      -3.2752      2.00000
     26      -3.2180      2.00000
     27      -3.1824      2.00000
     28      -3.1478      2.00000
     29      -3.1163      2.00000
     30      -3.1094      2.00000
     31      -3.0890      2.00000
     32      -3.0662      2.00000
     33      -3.0438      2.00000
     34      -3.0338      2.00000
     35      -3.0112      2.00000
     36      -2.9823      2.00000
     37      -2.9801      2.00000
     38      -2.9696      2.00000
     39      -2.9131      2.00000
     40      -2.9125      2.00000
     41      -2.8839      2.00000
     42      -2.8816      2.00000
     43      -2.8394      2.00000
     44      -2.7891      2.00000
     45      -2.7635      2.00000
     46      -2.7436      2.00000
     47      -2.6930      2.00000
     48      -2.6479      2.00000
     49      -2.6447      2.00000
     50      -2.6219      2.00000
     51      -2.6211      2.00000
     52      -2.6121      2.00000
     53      -2.5683      2.00000
     54      -2.5502      2.00000
     55      -2.5355      2.00000
     56      -2.5157      2.00000
     57      -2.4725      2.00000
     58      -2.4469      2.00000
     59      -2.4337      2.00000
     60      -2.4189      2.00000
     61      -2.4021      2.00000
     62      -2.4002      2.00000
     63      -2.3544      2.00000
     64      -2.3431      2.00000
     65      -2.2812      2.00000
     66      -2.2751      2.00000
     67      -2.2587      2.00000
     68      -2.2462      2.00000
     69      -2.1724      2.00000
     70      -2.1653      2.00000
     71      -2.1547      2.00000
     72      -2.1465      2.00000
     73      -2.1179      2.00000
     74      -2.0930      2.00000
     75      -1.9773      2.00000
     76      -1.9415      2.00000
     77      -1.9035      2.00000
     78      -1.8288      2.00000
     79      -1.8235      2.00000
     80      -1.7458      2.00000
     81      -1.6910      2.00000
     82      -1.6728      2.00000
     83      -1.6234      2.00000
     84      -1.5828      2.00000
     85      -1.5218      2.00000
     86      -1.4587      2.00000
     87      -1.4318      2.00000
     88      -1.3279      2.00000
     89      -1.0954      2.00000
     90      -1.0869      2.00000
     91      -0.9551      2.00000
     92      -0.8929      2.00000
     93      -0.8171      2.00000
     94      -0.5211      2.00000
     95      -0.1538      2.00000
     96      -0.1264      2.00000
     97       0.0552      2.00000
     98       0.1740      2.00000
     99       0.2934      2.00000
    100       0.3665      2.00000
    101       0.6564      2.00000
    102       0.7174      2.00000
    103       0.9200      2.00000
    104       0.9243      2.00000
    105       1.0679      2.00000
    106       1.1076      2.00000
    107       1.3231      2.00000
    108       1.6246      2.00000
    109       1.7309      2.00000
    110       1.7793      2.00000
    111       1.9032      2.00000
    112       2.1397      2.00000
    113       3.7548      0.00000
    114       4.3521      0.00000
    115       4.6640      0.00000
    116       4.6894      0.00000
    117       4.8449      0.00000
    118       4.9818      0.00000
    119       5.1562      0.00000
    120       5.4527      0.00000
    121       5.5499      0.00000
    122       5.6021      0.00000
    123       6.0730      0.00000
    124       6.1255      0.00000
    125       6.2725      0.00000
    126       6.5861      0.00000
    127       6.6431      0.00000
    128       6.8117      0.00000
    129       6.9445      0.00000
    130       7.2090      0.00000
    131       7.3408      0.00000
    132       7.6287      0.00000
    133       7.8648      0.00000
    134       8.2033      0.00000
    135       8.5389      0.00000
    136       8.5747      0.00000
    137       8.9933      0.00000
    138       9.3137      0.00000
    139       9.3736      0.00000
    140       9.5150      0.00000
    141       9.5485      0.00000
    142       9.6568      0.00000
    143      10.0615      0.00000
    144      10.1100      0.00000
    145      10.5065      0.00000
    146      10.6192      0.00000
    147      10.6417      0.00000
    148      10.6450      0.00000
    149      10.8083      0.00000
    150      10.8296      0.00000
    151      11.1262      0.00000
    152      11.1322      0.00000
    153      11.6131      0.00000
    154      11.8709      0.00000
    155      11.9275      0.00000
    156      12.0060      0.00000
    157      12.0321      0.00000
    158      12.2297      0.00000
    159      12.4016      0.00000
    160      12.7168      0.00000
    161      12.9918      0.00000
    162      13.0489      0.00000
    163      13.1629      0.00000
    164      13.1991      0.00000
    165      13.3575      0.00000
    166      13.5282      0.00000
    167      13.6345      0.00000
    168      13.9018      0.00000
    169      13.9992      0.00000
    170      14.0888      0.00000
    171      14.1313      0.00000
    172      14.2617      0.00000

 k-point   5 :      -0.0625    0.0625    0.0625
  band No.  band energies     occupation 
      1     -10.6605      2.00000
      2     -10.3604      2.00000
      3     -10.3572      2.00000
      4     -10.3514      2.00000
      5     -10.0489      2.00000
      6     -10.0483      2.00000
      7     -10.0410      2.00000
      8      -9.9415      2.00000
      9      -3.7780      2.00000
     10      -3.6803      2.00000
     11      -3.6796      2.00000
     12      -3.6788      2.00000
     13      -3.6498      2.00000
     14      -3.6403      2.00000
     15      -3.6231      2.00000
     16      -3.6032      2.00000
     17      -3.5974      2.00000
     18      -3.5890      2.00000
     19      -3.5487      2.00000
     20      -3.5445      2.00000
     21      -3.5278      2.00000
     22      -3.5259      2.00000
     23      -3.2478      2.00000
     24      -3.2278      2.00000
     25      -3.2058      2.00000
     26      -3.1964      2.00000
     27      -3.1874      2.00000
     28      -3.1741      2.00000
     29      -3.1681      2.00000
     30      -3.1520      2.00000
     31      -3.0739      2.00000
     32      -3.0027      2.00000
     33      -2.9635      2.00000
     34      -2.9561      2.00000
     35      -2.9551      2.00000
     36      -2.9513      2.00000
     37      -2.9314      2.00000
     38      -2.8484      2.00000
     39      -2.8406      2.00000
     40      -2.8107      2.00000
     41      -2.7753      2.00000
     42      -2.7589      2.00000
     43      -2.7491      2.00000
     44      -2.7347      2.00000
     45      -2.7114      2.00000
     46      -2.6931      2.00000
     47      -2.6879      2.00000
     48      -2.6817      2.00000
     49      -2.6681      2.00000
     50      -2.6445      2.00000
     51      -2.6332      2.00000
     52      -2.6062      2.00000
     53      -2.5879      2.00000
     54      -2.5873      2.00000
     55      -2.5572      2.00000
     56      -2.5365      2.00000
     57      -2.4566      2.00000
     58      -2.4321      2.00000
     59      -2.4230      2.00000
     60      -2.3734      2.00000
     61      -2.3655      2.00000
     62      -2.3168      2.00000
     63      -2.3113      2.00000
     64      -2.2922      2.00000
     65      -2.2833      2.00000
     66      -2.2744      2.00000
     67      -2.2642      2.00000
     68      -2.2577      2.00000
[...]
     50      -2.5886      2.00000
     51      -2.5513      2.00000
     52      -2.5444      2.00000
     53      -2.5145      2.00000
     54      -2.4938      2.00000
     55      -2.4747      2.00000
     56      -2.4577      2.00000
     57      -2.4323      2.00000
     58      -2.4318      2.00000
     59      -2.4306      2.00000
     60      -2.4293      2.00000
     61      -2.4098      2.00000
     62      -2.3934      2.00000
     63      -2.3916      2.00000
     64      -2.3707      2.00000
     65      -2.3014      2.00000
     66      -2.2950      2.00000
     67      -2.2889      2.00000
     68      -2.2644      2.00000
     69      -2.2451      2.00000
     70      -2.2411      2.00000
     71      -2.0937      2.00000
     72      -2.0886      2.00000
     73      -2.0752      2.00000
     74      -2.0724      2.00000
     75      -2.0554      2.00000
     76      -1.8485      2.00000
     77      -1.8433      2.00000
     78      -1.8212      2.00000
     79      -1.8169      2.00000
     80      -1.8145      2.00000
     81      -1.5697      2.00000
     82      -1.5613      2.00000
     83      -1.5482      2.00000
     84      -1.5235      2.00000
     85      -1.5169      2.00000
     86      -1.4906      2.00000
     87      -1.3367      2.00000
     88      -1.2837      2.00000
     89      -1.2696      2.00000
     90      -1.2090      2.00000
     91      -1.1669      2.00000
     92      -0.6263      2.00000
     93      -0.6089      2.00000
     94      -0.5675      2.00000
     95      -0.1330      2.00000
     96      -0.1024      2.00000
     97      -0.0681      2.00000
     98       0.0742      2.00000
     99       0.2056      2.00000
    100       0.3618      2.00000
    101       0.3764      2.00000
    102       0.4260      2.00000
    103       0.5636      2.00000
    104       1.0681      2.00000
    105       1.1839      2.00000
    106       1.2024      2.00000
    107       1.2971      2.00000
    108       1.3165      2.00000
    109       1.4111      2.00000
    110       1.4436      2.00000
    111       1.4450      2.00000
    112       1.5345      2.00000
    113       4.3140      0.00000
    114       4.6757      0.00000
    115       4.8006      0.00000
    116       5.0049      0.00000
    117       5.0105      0.00000
    118       5.0598      0.00000
    119       5.7808      0.00000
    120       6.0287      0.00000
    121       6.1337      0.00000
    122       6.1826      0.00000
    123       6.2731      0.00000
    124       6.5925      0.00000
    125       6.7869      0.00000
    126       6.8960      0.00000
    127       6.9056      0.00000
    128       6.9941      0.00000
    129       7.0012      0.00000
    130       7.2255      0.00000
    131       7.4191      0.00000
    132       7.8460      0.00000
    133       7.8628      0.00000
    134       8.1330      0.00000
    135       8.5629      0.00000
    136       8.6126      0.00000
    137       8.6707      0.00000
    138       8.8391      0.00000
    139       9.0551      0.00000
    140       9.1657      0.00000
    141       9.1708      0.00000
    142       9.5579      0.00000
    143       9.8261      0.00000
    144       9.8461      0.00000
    145      10.1168      0.00000
    146      10.1184      0.00000
    147      10.1612      0.00000
    148      10.2657      0.00000
    149      10.4719      0.00000
    150      10.5610      0.00000
    151      10.5636      0.00000
    152      10.7685      0.00000
    153      10.8107      0.00000
    154      10.8571      0.00000
    155      11.0461      0.00000
    156      11.1138      0.00000
    157      12.0691      0.00000
    158      12.1030      0.00000
    159      12.4349      0.00000
    160      12.6838      0.00000
    161      12.7331      0.00000
    162      12.8742      0.00000
    163      12.9149      0.00000
    164      12.9404      0.00000
    165      12.9470      0.00000
    166      13.4205      0.00000
    167      13.5896      0.00000
    168      13.6681      0.00000
    169      13.9384      0.00000
    170      13.9565      0.00000
    171      14.3037      0.00000
    172      14.3351      0.00000


--------------------------------------------------------------------------------------------------------


 soft charge-density along one line, spin component           1
         0         1         2         3         4         5         6         7         8         9
 total charge-density along one line
 
 pseudopotential strength for first ion, spin component:           1
-13.866  -0.001  -0.000   0.000   0.000   0.134   0.000   0.000
 -0.001 -13.880   0.000   0.000  -0.000   0.000   0.134  -0.000
 -0.000   0.000 -13.877   0.002   0.005   0.000  -0.000   0.133
  0.000   0.000   0.002 -13.868  -0.006  -0.000  -0.000   0.000
  0.000  -0.000   0.005  -0.006 -13.880  -0.000   0.000   0.000
  0.134   0.000   0.000  -0.000  -0.000   0.324  -0.000  -0.000
  0.000   0.134  -0.000  -0.000   0.000  -0.000   0.323   0.000
  0.000  -0.000   0.133   0.000   0.000  -0.000   0.000   0.323
 -0.000  -0.000   0.000   0.133   0.000   0.000   0.000   0.000
 -0.000   0.000   0.000   0.000   0.134   0.000  -0.000   0.000
 -0.000  -0.000  -0.001  -0.000   0.000   0.000   0.000   0.000
  0.000   0.000   0.000  -0.000   0.000  -0.000  -0.000  -0.000
  0.000  -0.000  -0.004  -0.000  -0.003  -0.000   0.000   0.001
 -0.000   0.003  -0.000   0.000  -0.000   0.000  -0.000   0.000
  0.006  -0.000  -0.000  -0.000  -0.000  -0.001   0.000   0.000
 -0.000   0.000   0.003   0.000   0.002   0.000  -0.000  -0.001
  0.000  -0.001  -0.000  -0.000   0.000  -0.000   0.000  -0.000
 -0.004   0.000   0.000   0.000   0.000   0.001  -0.000  -0.000
 total augmentation occupancy for first ion, spin component:           1
  2.031  -0.001  -0.001  -0.001   0.000   0.135  -0.001   0.003   0.001  -0.001   0.005   0.000   0.002  -0.004   0.024  -0.000
 -0.001   2.045  -0.001  -0.000   0.000  -0.001   0.125   0.001   0.000  -0.000  -0.001  -0.000   0.001  -0.018  -0.003  -0.000
 -0.001  -0.001   2.042  -0.002  -0.001   0.003   0.001   0.122   0.003   0.002   0.001   0.002  -0.024   0.002  -0.004  -0.002
 -0.001  -0.000  -0.002   2.044   0.003   0.001   0.000   0.003   0.135  -0.001   0.011   0.001  -0.003  -0.001  -0.001  -0.000
  0.000   0.000  -0.001   0.003   2.046  -0.001  -0.000   0.002  -0.001   0.130  -0.025  -0.005   0.011  -0.002   0.001  -0.001
  0.135  -0.001   0.003   0.001  -0.001   0.134   0.010  -0.006  -0.001   0.001  -0.006   0.000  -0.003   0.001  -0.043   0.000
 -0.001   0.125   0.001   0.000  -0.000   0.010   0.094  -0.002   0.000   0.001   0.001   0.000  -0.001   0.035   0.000   0.000
  0.003   0.001   0.122   0.003   0.002  -0.006  -0.002   0.135   0.007  -0.035  -0.012   0.003   0.035  -0.003   0.007  -0.002
  0.001   0.000   0.003   0.135  -0.001  -0.001   0.000   0.007   0.076  -0.018  -0.014   0.004  -0.001   0.001   0.001  -0.000
 -0.001  -0.000   0.002  -0.001   0.130   0.001   0.001  -0.035  -0.018   0.076   0.044  -0.023  -0.030   0.002  -0.001   0.002
  0.005  -0.001   0.001   0.011  -0.025  -0.006   0.001  -0.012  -0.014   0.044   0.661  -0.332  -0.011   0.010   0.009   0.000
  0.000  -0.000   0.002   0.001  -0.005   0.000   0.000   0.003   0.004  -0.023  -0.332   0.212  -0.004  -0.001  -0.002   0.000
  0.002   0.001  -0.024  -0.003   0.011  -0.003  -0.001   0.035  -0.001  -0.030  -0.011  -0.004   0.069  -0.003   0.002  -0.005
 -0.004  -0.018   0.002  -0.001  -0.002   0.001   0.035  -0.003   0.001   0.002   0.010  -0.001  -0.003   0.078  -0.006   0.000
  0.024  -0.003  -0.004  -0.001   0.001  -0.043   0.000   0.007   0.001  -0.001   0.009  -0.002   0.002  -0.006   0.088  -0.000
 -0.000  -0.000  -0.002  -0.000  -0.001   0.000   0.000  -0.002  -0.000   0.002   0.000   0.000  -0.005   0.000  -0.000   0.000
 -0.000   0.001  -0.000   0.000   0.000  -0.000  -0.003   0.000  -0.000  -0.000  -0.000   0.000   0.000  -0.005   0.000  -0.000
  0.004  -0.000   0.000   0.000  -0.000   0.003   0.000  -0.000  -0.000   0.000  -0.000   0.000  -0.000   0.000  -0.006   0.000


------------------------ aborting loop because EDIFF is reached ----------------------------------------


 


 total charge     
 
# of ion     s       p       d       tot
----------------------------------------
  1        0.220   0.148   9.309   9.678
  2        0.222   0.148   9.309   9.679
  3        0.225   0.146   9.309   9.680
  4        0.220   0.147   9.310   9.678
  5        0.225   0.146   9.312   9.683
  6        0.221   0.148   9.312   9.681
  7        0.220   0.148   9.308   9.676
  8        0.224   0.147   9.307   9.678
  9        0.223   0.146   9.312   9.682
 10        0.221   0.147   9.312   9.680
 11        0.224   0.147   9.311   9.682
 12        0.221   0.148   9.311   9.681
 13        0.605   0.271   9.101   9.977
 14        0.596   0.276   9.105   9.977
 15        0.601   0.273   9.103   9.977
 16        0.568   0.292   9.130   9.990
 17        1.462   2.281   0.036   3.778
 18        1.462   2.281   0.036   3.779
 19        1.462   2.280   0.036   3.778
 20        1.464   2.278   0.036   3.778
 21        1.462   2.282   0.036   3.781
 22        1.462   2.279   0.036   3.776
 23        1.462   2.279   0.036   3.777
 24        1.464   2.278   0.036   3.779
------------------------------------------------
tot       16.736  21.117 148.452 186.305
 


--------------------------------------------------------------------------------------------------------


    CHARGE:  VPU time    1.23: CPU time    1.24
    FORLOC:  VPU time    0.00: CPU time    0.00
    FORNL :  VPU time    8.41: CPU time    8.57
    STRESS:  VPU time   14.25: CPU time   14.26
    FORCOR:  VPU time    0.04: CPU time    0.04
    FORHAR:  VPU time    0.02: CPU time    0.02
    MIXING:  VPU time    0.00: CPU time    0.00


--------------------------------------------------------------------------------------------------------



  FREE ENERGIE OF THE ION-ELECTRON SYSTEM (eV)
  ---------------------------------------------------
  free  energy   TOTEN  =       -43.211754 eV

  energy  without entropy=      -43.211754  energy(sigma->0) =      -43.211754
 

  FORCE on cell =-STRESS in cart. coord.  units (eV/reduce length):
  Direction    X        Y        Z        XY       YZ       ZX
  --------------------------------------------------------------------------------------
  Alpha Z   1327.17   1327.17   1327.17
  Ewald    -5118.44  -5118.44  -5118.44      0.00      0.00      0.00
  Hartree   1567.20   1567.20   1567.20     -0.00     -0.00     -0.00
  E(xc)    -1083.32  -1083.32  -1083.32     -0.00     -0.00     -0.00
  Local      564.62    564.62    564.62     -0.00     -0.00     -0.00
  n-local   -774.59   -773.37   -772.28      2.55     -1.97     -1.48
  augment    620.35    620.35    620.35      0.00      0.00      0.00
  Kinetic   2892.44   2895.76   2898.63      6.93     -5.44     -4.20
  -------------------------------------------------------------------------------------
  Total       -0.22     -0.22     -0.22      0.00      0.00     -0.00
  in kB       -0.67     -0.67     -0.67      0.00      0.00     -0.00
  external pressure =       -0.67 kB  Pullay stress =        0.00 kB


 VOLUME and BASIS-vectors are now :
 -----------------------------------------------------------------------------
  energy-cutoff  :      349.78
  volume of cell :      520.34
      direct lattice vectors                 reciprocal lattice vectors
    -5.066894338  5.066894338  5.066894338     0.000000000  0.098679776  0.098679776
     5.066894338 -5.066894338  5.066894338     0.098679776  0.000000000  0.098679776
     5.066894338  5.066894338 -5.066894338     0.098679776  0.098679776  0.000000000

  length of vectors
     8.776118430  8.776118430  8.776118430     0.139554278  0.139554278  0.139554278


 FORCES acting on ions
    electron-ion (+dipol)            ewald-force                    non-local-force                 convergence-correction
 -----------------------------------------------------------------------------------------------
   -.868E-05 0.182E+03 -.577E-05   0.841E-11 -.183E+03 0.142E-11   -.121E-16 0.580E+00 -.347E-17   -.720E-05 -.483E-02 0.114E-04
   0.330E-05 -.182E+03 0.201E-05   -.172E-11 0.183E+03 -.567E-11   0.520E-17 -.580E+00 -.867E-17   0.939E-05 0.482E-02 -.163E-04
   -.567E-05 -.922E-05 0.182E+03   0.132E-11 0.838E-11 -.183E+03   0.520E-17 -.694E-17 0.580E+00   0.163E-04 0.937E-05 -.482E-02
   0.292E-05 0.341E-05 -.182E+03   -.572E-11 -.172E-11 0.183E+03   -.781E-17 -.867E-18 -.580E+00   -.114E-04 -.717E-05 0.483E-02
   -.182E+03 0.138E-05 0.308E-05   0.183E+03 -.570E-11 -.176E-11   -.580E+00 -.173E-17 0.347E-17   0.482E-02 0.162E-04 -.937E-05
   0.182E+03 -.451E-05 -.784E-05   -.183E+03 0.135E-11 0.844E-11   0.580E+00 0.173E-17 -.173E-17   -.483E-02 -.113E-04 0.718E-05
   -.341E-05 -.292E-05 0.182E+03   0.180E-11 0.577E-11 -.183E+03   0.173E-17 0.156E-16 0.580E+00   0.717E-05 0.114E-04 -.483E-02
   0.922E-05 0.567E-05 -.182E+03   -.835E-11 -.126E-11 0.183E+03   0.173E-17 0.173E-17 -.580E+00   -.937E-05 -.163E-04 0.482E-02
   -.138E-05 0.182E+03 -.308E-05   0.570E-11 -.183E+03 0.178E-11   0.121E-16 0.580E+00 0.520E-17   -.162E-04 -.482E-02 0.937E-05
   0.451E-05 -.182E+03 0.784E-05   -.131E-11 0.183E+03 -.826E-11   -.607E-17 -.580E+00 0.867E-18   0.113E-04 0.483E-02 -.718E-05
   0.182E+03 -.330E-05 -.201E-05   -.183E+03 0.178E-11 0.570E-11   0.580E+00 0.173E-17 0.867E-17   -.482E-02 -.939E-05 0.163E-04
   -.182E+03 0.868E-05 0.577E-05   0.183E+03 -.841E-11 -.135E-11   -.580E+00 0.694E-17 0.000E+00   0.483E-02 0.720E-05 -.114E-04
   -.122E-06 -.197E-06 -.190E-06   0.213E-13 0.761E-14 -.206E-13   0.325E-18 -.217E-18 0.434E-18   -.985E-07 -.307E-08 -.954E-07
   0.148E-06 -.148E-06 0.254E-11   0.202E-13 -.138E-13 -.386E-13   0.651E-18 0.108E-18 -.217E-18   0.985E-07 -.985E-07 0.868E-13
   0.197E-06 0.122E-06 0.190E-06   -.271E-14 0.862E-13 -.444E-15   0.542E-19 0.271E-18 -.103E-17   0.307E-08 0.985E-07 0.954E-07
   -.231E-06 0.231E-06 -.839E-12   0.488E-13 -.506E-13 0.822E-14   -.152E-17 0.651E-18 0.108E-17   -.307E-08 0.307E-08 -.723E-13
   -.970E+02 0.970E+02 0.970E+02   0.987E+02 -.987E+02 -.987E+02   -.174E+01 0.174E+01 0.174E+01   0.201E-02 -.201E-02 -.203E-02
   -.970E+02 -.970E+02 -.970E+02   0.987E+02 0.987E+02 0.987E+02   -.174E+01 -.174E+01 -.174E+01   0.203E-02 0.201E-02 0.201E-02
   0.970E+02 -.970E+02 0.970E+02   -.987E+02 0.987E+02 -.987E+02   0.174E+01 -.174E+01 0.174E+01   -.201E-02 0.203E-02 -.201E-02
   0.970E+02 0.970E+02 -.970E+02   -.987E+02 -.987E+02 0.987E+02   0.174E+01 0.174E+01 -.174E+01   -.202E-02 -.202E-02 0.202E-02
   0.970E+02 0.970E+02 0.970E+02   -.987E+02 -.987E+02 -.987E+02   0.174E+01 0.174E+01 0.174E+01   -.201E-02 -.203E-02 -.201E-02
   0.970E+02 -.970E+02 -.970E+02   -.987E+02 0.987E+02 0.987E+02   0.174E+01 -.174E+01 -.174E+01   -.203E-02 0.201E-02 0.201E-02
   -.970E+02 0.970E+02 -.970E+02   0.987E+02 -.987E+02 0.987E+02   -.174E+01 0.174E+01 -.174E+01   0.201E-02 -.201E-02 0.203E-02
   -.970E+02 -.970E+02 0.970E+02   0.987E+02 0.987E+02 -.987E+02   -.174E+01 -.174E+01 0.174E+01   0.202E-02 0.202E-02 -.202E-02
 -----------------------------------------------------------------------------------------------
   0.990E-06 -.990E-06 0.201E-10   0.000E+00 0.853E-13 0.426E-13   -.444E-15 -.444E-15 -.133E-14   -.269E-11 0.292E-11 0.327E-12
 
 
 POSITION                                       TOTAL-FORCE (eV/Angst)
 -----------------------------------------------------------------------------------
      2.53345      6.36460      0.00000        -0.000000     -0.020819      0.000000
      2.53345      3.76919      5.06689         0.000000      0.020819     -0.000000
      5.06689      2.53345      1.29770         0.000000     -0.000000     -0.020819
      5.06689     -2.53345      3.76919        -0.000000      0.000000      0.020819
     -1.29770      5.06689      2.53345         0.020819     -0.000000      0.000000
      1.29770      0.00000      2.53345        -0.020819      0.000000     -0.000000
      0.00000      2.53345      3.83115        -0.000000      0.000000     -0.020819
      0.00000      7.60034      1.23575         0.000000     -0.000000      0.020819
      2.53345     -1.23575      5.06689         0.000000     -0.020819     -0.000000
      2.53345      1.23575      0.00000        -0.000000      0.020819      0.000000
      3.83115      5.06689      2.53345        -0.020819     -0.000000      0.000000
      6.30264      0.00000      2.53345         0.020819      0.000000     -0.000000
     -3.80017      3.80017      3.80017         0.000000      0.000000     -0.000000
      1.26672      1.26672      6.33362        -0.000000     -0.000000      0.000000
      3.80017      1.26672      3.80017        -0.000000      0.000000      0.000000
      3.80017     -1.26672      1.26672         0.000000     -0.000000      0.000000
     -2.36157      2.36157      2.36157        -0.016119      0.016119      0.016119
      2.70532      2.70532     -2.36157        -0.016119     -0.016119     -0.016119
      2.36157      2.70532      2.36157         0.016119     -0.016119      0.016119
      7.42846      2.36157     -2.36157         0.016119      0.016119     -0.016119
      4.89502      4.89502     -0.17188         0.016119      0.016119      0.016119
     -0.17188      0.17188      0.17188         0.016119     -0.016119     -0.016119
      0.17188      4.89502      0.17188        -0.016119      0.016119     -0.016119
      5.23877      0.17188     -0.17188        -0.016119     -0.016119      0.016119
 -----------------------------------------------------------------------------------
    total drift:                                0.000001     -0.000001      0.000000


--------------------------------------------------------------------------------------------------------



 mean value of Nose-termostat <S>:     1.000 mean value of <T> :     0.000
 mean temperature <T/S>/<1/S>  :     0.000

     LOOP+:  VPU time  563.46: CPU time  574.62
 


 total charge     
 
# of ion     s       p       d       tot
----------------------------------------
  1        0.220   0.148   9.309   9.678
  2        0.222   0.148   9.309   9.679
  3        0.225   0.146   9.309   9.680
  4        0.220   0.147   9.310   9.678
  5        0.225   0.146   9.312   9.683
  6        0.221   0.148   9.312   9.681
  7        0.220   0.148   9.308   9.676
  8        0.224   0.147   9.307   9.678
  9        0.223   0.146   9.312   9.682
 10        0.221   0.147   9.312   9.680
 11        0.224   0.147   9.311   9.682
 12        0.221   0.148   9.311   9.681
 13        0.605   0.271   9.101   9.977
 14        0.596   0.276   9.105   9.977
 15        0.601   0.273   9.103   9.977
 16        0.568   0.292   9.130   9.990
 17        1.462   2.281   0.036   3.778
 18        1.462   2.281   0.036   3.779
 19        1.462   2.280   0.036   3.778
 20        1.464   2.278   0.036   3.778
 21        1.462   2.282   0.036   3.781
 22        1.462   2.279   0.036   3.776
 23        1.462   2.279   0.036   3.777
 24        1.464   2.278   0.036   3.779
------------------------------------------------
tot       16.736  21.117 148.452 186.305
 
 BZINTS: Fermi energy:  2.213318;224.000000 electrons
         Band energy:-567.207105;  BLOECHL correction:  0.000000
  
  
 General timing and accounting informations for this job:
 ========================================================
  
                  Total CPU time used (sec):      593.246
                            User time (sec):      582.347
                          System time (sec):       10.898
                         Elapsed time (sec):      616.981
  
                   Maximum memory used (kb):       65112.
                   Average memory used (kb):           0.
  
                          Minor page faults:        18638
                          Major page faults:            0
                 Voluntary context switches:          671
