 vasp.4.6.34 5Dec07 complex 
 executed on             LinuxIFC date 2011.07.31  02:57:15
 running on   32 nodes
 distr:  one band on    8 nodes,    4 groups


--------------------------------------------------------------------------------------------------------


 INCAR:
 POTCAR:   PAW_PBE Ag 06Sep2000                   
 POTCAR:   PAW_PBE Te 08Apr2002                   
 POTCAR:   PAW_PBE Ag 06Sep2000                   
   VRHFIN =Ag : s1 d10                                                          
   LEXCH  = PE                                                                  
   EATOM  =  1037.4134 eV,   76.2477 Ry                                         
                                                                                
   TITEL  = PAW_PBE Ag 06Sep2000                                                
   LULTRA =        F    use ultrasoft PP ?                                      
   IUNSCR =        1    unscreen: 0-lin 1-nonlin 2-no                           
   RPACOR =    2.000    partial core radius                                     
   POMASS =  107.868; ZVAL   =   11.000    mass and valenz                      
   RCORE  =    2.400    outmost cutoff radius                                   
   RWIGS  =    2.840; RWIGS  =    1.503    wigner-seitz radius (au A)           
   ENMAX  =  249.846; ENMIN  =  187.385 eV                                      
   RCLOC  =    1.962    cutoff for local pot                                    
   LCOR   =        T    correct aug charges                                     
   LPAW   =        T    paw PP                                                  
   EAUG   =  412.496                                                            
   DEXC   =    -.047                                                            
   RMAX   =    2.917    core radius for proj-oper                               
   RAUG   =    1.300    factor for augmentation sphere                          
   RDEP   =    2.416    radius for radial grids                                 
   QCUT   =   -4.285; QGAM   =    8.570    optimization parameters              
                                                                                
   Description                                                                  
     l     E      TYP  RCUT    TYP  RCUT                                        
     2   .000     23  2.400                                                     
     2   .000     23  2.400                                                     
     0   .000     23  2.400                                                     
     0   .000     23  2.400                                                     
     1  -.200     23  2.400                                                     
     1  1.500     23  2.400                                                     
     3   .000      7   .000                                                     
  local pseudopotential read in
  partial core-charges read in
  atomic valenz-charges read in
  non local Contribution for L=           2  read in
    real space projection operators read in
  non local Contribution for L=           2  read in
    real space projection operators read in
  non local Contribution for L=           0  read in
    real space projection operators read in
  non local Contribution for L=           0  read in
    real space projection operators read in
  non local Contribution for L=           1  read in
    real space projection operators read in
  non local Contribution for L=           1  read in
    real space projection operators read in
    PAW grid and wavefunctions read in
 
   number of l-projection  operators is LMAX  =           6
   number of lm-projection operators is LMMAX =          18
 
 POTCAR:   PAW_PBE Te 08Apr2002                   
   VRHFIN =Te: s2p4                                                             
   LEXCH  = PE                                                                  
   EATOM  =   223.2721 eV,   16.4100 Ry                                         
                                                                                
   TITEL  = PAW_PBE Te 08Apr2002                                                
   LULTRA =        F    use ultrasoft PP ?                                      
   IUNSCR =        1    unscreen: 0-lin 1-nonlin 2-no                           
   RPACOR =    2.200    partial core radius                                     
   POMASS =  127.600; ZVAL   =    6.000    mass and valenz                      
   RCORE  =    2.300    outmost cutoff radius                                   
   RWIGS  =    2.900; RWIGS  =    1.535    wigner-seitz radius (au A)           
   ENMAX  =  174.982; ENMIN  =  131.236 eV                                      
   ICORE  =        3    local potential                                         
   LCOR   =        T    correct aug charges                                     
   LPAW   =        T    paw PP                                                  
   EAUG   =  368.792                                                            
   DEXC   =    -.169                                                            
   RMAX   =    3.486    core radius for proj-oper                               
   RAUG   =    1.300    factor for augmentation sphere                          
   RDEP   =    2.397    radius for radial grids                                 
   QCUT   =   -3.586; QGAM   =    7.172    optimization parameters              
                                                                                
   Description                                                                  
     l     E      TYP  RCUT    TYP  RCUT                                        
     0   .000     23  2.300                                                     
     0   .000     23  2.300                                                     
     1   .000     23  2.300                                                     
     1   .000     23  2.300                                                     
     2   .000     23  2.300                                                     
     3  -.100     23  2.300                                                     
  local pseudopotential read in
  partial core-charges read in
  atomic valenz-charges read in
  non local Contribution for L=           0  read in
    real space projection operators read in
  non local Contribution for L=           0  read in
    real space projection operators read in
  non local Contribution for L=           1  read in
    real space projection operators read in
  non local Contribution for L=           1  read in
    real space projection operators read in
  non local Contribution for L=           2  read in
    real space projection operators read in
    PAW grid and wavefunctions read in
 
   number of l-projection  operators is LMAX  =           5
   number of lm-projection operators is LMMAX =          13
 
 PAW_PBE Ag 06Sep2000                   :
 energy of atom  1       EATOM=-1037.4134
 kinetic energy error for atom=    0.0273 (will be added to EATOM!!)
 PAW_PBE Te 08Apr2002                   :
 energy of atom  2       EATOM= -223.2721
 kinetic energy error for atom=    0.0018 (will be added to EATOM!!)
 
 EXHCAR: internal setup
 exchange correlation table for  LEXCH =        8
   RHO(1)=    0.500       N(1)  =     2000
   RHO(2)=  100.500       N(2)  =     4000
 
 POSCAR: Ag1Te3 #160.2 - (Ag1Te3_ICSD_37186) - Ag
  positions in direct lattice
  velocities in cartesian coordinates

 VTST: version 2.03c (08/15/07)

 CHAIN: initializing optimizer
 
 OPT: Using VASP Conjugate-Gradient optimizer
 CHAIN: Read ICHAIN            0
 


--------------------------------------------------------------------------------------------------------


 ion  position               nearest neighbor table
   1  0.005  0.000  0.000-   3 3.07   4 3.07   2 3.07   2 3.08   4 3.08   3 3.08
   2  0.506  0.500  0.000-   1 3.07   3 3.08   4 3.08   4 3.08   3 3.08   1 3.08
   3  0.006  0.500  0.500-   1 3.07   4 3.08   2 3.08   2 3.08   4 3.08   1 3.08
   4  0.506  0.000  0.500-   1 3.07   3 3.08   2 3.08   2 3.08   3 3.08   1 3.08
 
  LATTYP: Found a trigonal (rhomboedric) cell.
 ALAT       =     5.3282056985
 COS(alpha) =    -0.3334229222
  
  Lattice vectors:
  
 A1 = (   0.0000000000,   5.0236492730,  -1.7755911542)
 A2 = (   4.3506078901,  -2.5118246365,  -1.7755911542)
 A3 = (  -4.3506078901,  -2.5118246365,  -1.7755911542)
 Subroutine PRICEL returns:
 Original cell was already a primitive cell.
 

Analysis of symmetry for initial positions (statically):

 Routine SETGRP: Setting up the symmetry group for a 
 trigonal (rhombohedral) supercell.


 Subroutine GETGRP returns: Found  6 space group operations
 (whereof  6 operations were pure point group operations)
 out of a pool of 12 trial point group operations.


The static configuration has the point symmetry C_3v.

Analysis of symmetry for dynamics (positions and initial velocities):

 Subroutine DYNSYM returns: Found  6 space group operations
 (whereof  6 operations were pure point group operations)
 out of a pool of  6 trial space group operations
 (whereof  6 operations were pure point group operations)
 and found also     1 'primitive' translations


The dynamic configuration has the point symmetry C_3v.
 
 
 KPOINTS: KPOINTS File, automatically generated by

Automatic generation of k-mesh.
 
 Subroutine IBZKPT returns following result:
 ===========================================
 
 Found    280 irreducible k-points:
 
 Following reciprocal coordinates:
            Coordinates               Weight
  0.035714  0.035714  0.035714      6.000000
  0.107143  0.035714  0.035714     12.000000
  0.178571  0.035714  0.035714     12.000000
  0.250000  0.035714  0.035714     12.000000
  0.321429  0.035714  0.035714     12.000000
  0.392857  0.035714  0.035714     12.000000
  0.464286  0.035714  0.035714     12.000000
  0.035714  0.107143  0.035714     12.000000
  0.107143  0.107143  0.035714     12.000000
  0.178571  0.107143  0.035714     12.000000
  0.250000  0.107143  0.035714     12.000000
  0.321429  0.107143  0.035714     12.000000
  0.392857  0.107143  0.035714     12.000000
  0.464286  0.107143  0.035714     12.000000
 -0.464286  0.107143  0.035714     12.000000
 -0.392857  0.107143  0.035714     12.000000
 -0.321429  0.107143  0.035714     12.000000
 -0.250000  0.107143  0.035714     12.000000
 -0.178571  0.107143  0.035714      6.000000
 -0.035714  0.107143  0.035714      6.000000
  0.035714  0.178571  0.035714     12.000000
  0.107143  0.178571  0.035714     12.000000
  0.178571  0.178571  0.035714     12.000000
  0.250000  0.178571  0.035714     12.000000
  0.321429  0.178571  0.035714     12.000000
  0.392857  0.178571  0.035714     12.000000
  0.464286  0.178571  0.035714     12.000000
 -0.464286  0.178571  0.035714     12.000000
 -0.392857  0.178571  0.035714     12.000000
 -0.321429  0.178571  0.035714      6.000000
 -0.107143  0.178571  0.035714      6.000000
 -0.035714  0.178571  0.035714     12.000000
  0.035714  0.250000  0.035714     12.000000
  0.107143  0.250000  0.035714     12.000000
  0.178571  0.250000  0.035714     12.000000
  0.250000  0.250000  0.035714     12.000000
  0.321429  0.250000  0.035714     12.000000
  0.392857  0.250000  0.035714     12.000000
  0.464286  0.250000  0.035714     12.000000
 -0.464286  0.250000  0.035714      6.000000
 -0.178571  0.250000  0.035714      6.000000
 -0.107143  0.250000  0.035714     12.000000
 -0.035714  0.250000  0.035714     12.000000
  0.035714  0.321429  0.035714     12.000000
  0.107143  0.321429  0.035714     12.000000
  0.178571  0.321429  0.035714     12.000000
  0.250000  0.321429  0.035714     12.000000
  0.321429  0.321429  0.035714     12.000000
  0.392857  0.321429  0.035714      6.000000
 -0.250000  0.321429  0.035714      6.000000
 -0.178571  0.321429  0.035714     12.000000
 -0.107143  0.321429  0.035714     12.000000
 -0.035714  0.321429  0.035714     12.000000
  0.035714  0.392857  0.035714     12.000000
  0.107143  0.392857  0.035714     12.000000
  0.178571  0.392857  0.035714     12.000000
  0.250000  0.392857  0.035714      6.000000
 -0.321429  0.392857  0.035714      6.000000
 -0.250000  0.392857  0.035714     12.000000
 -0.178571  0.392857  0.035714     12.000000
 -0.107143  0.392857  0.035714     12.000000
 -0.035714  0.392857  0.035714     12.000000
  0.035714  0.464286  0.035714     12.000000
  0.107143  0.464286  0.035714      6.000000
 -0.392857  0.464286  0.035714      6.000000
 -0.321429  0.464286  0.035714     12.000000
 -0.250000  0.464286  0.035714     12.000000
 -0.178571  0.464286  0.035714     12.000000
 -0.107143  0.464286  0.035714     12.000000
 -0.035714  0.464286  0.035714     12.000000
 -0.464286 -0.464286  0.035714      6.000000
 -0.392857 -0.464286  0.035714     12.000000
 -0.321429 -0.464286  0.035714     12.000000
 -0.250000 -0.464286  0.035714     12.000000
 -0.178571 -0.464286  0.035714     12.000000
 -0.107143 -0.464286  0.035714     12.000000
 -0.035714 -0.464286  0.035714      6.000000
  0.464286 -0.392857  0.035714      6.000000
 -0.464286 -0.392857  0.035714     12.000000
 -0.392857 -0.392857  0.035714     12.000000
 -0.321429 -0.392857  0.035714     12.000000
 -0.250000 -0.392857  0.035714     12.000000
 -0.178571 -0.392857  0.035714      6.000000
  0.392857 -0.321429  0.035714      6.000000
  0.464286 -0.321429  0.035714     12.000000
 -0.464286 -0.321429  0.035714     12.000000
 -0.392857 -0.321429  0.035714     12.000000
 -0.321429 -0.321429  0.035714      6.000000
  0.321429 -0.250000  0.035714      6.000000
  0.392857 -0.250000  0.035714     12.000000
  0.464286 -0.250000  0.035714     12.000000
 -0.464286 -0.250000  0.035714      6.000000
  0.250000 -0.178571  0.035714      6.000000
  0.321429 -0.178571  0.035714     12.000000
  0.392857 -0.178571  0.035714      6.000000
  0.178571 -0.107143  0.035714      6.000000
  0.250000 -0.107143  0.035714      6.000000
  0.107143 -0.035714  0.035714      2.000000
  0.107143  0.107143  0.107143      6.000000
  0.178571  0.107143  0.107143     12.000000
  0.250000  0.107143  0.107143     12.000000
  0.321429  0.107143  0.107143     12.000000
  0.392857  0.107143  0.107143     12.000000
  0.464286  0.107143  0.107143     12.000000
  0.035714  0.178571  0.107143      6.000000
  0.107143  0.178571  0.107143     12.000000
  0.178571  0.178571  0.107143     12.000000
  0.250000  0.178571  0.107143     12.000000
  0.321429  0.178571  0.107143     12.000000
  0.392857  0.178571  0.107143     12.000000
  0.464286  0.178571  0.107143     12.000000
 -0.464286  0.178571  0.107143     12.000000
 -0.392857  0.178571  0.107143     12.000000
 -0.321429  0.178571  0.107143     12.000000
 -0.250000  0.178571  0.107143      6.000000
  0.035714  0.250000  0.107143     12.000000
  0.107143  0.250000  0.107143     12.000000
  0.178571  0.250000  0.107143     12.000000
  0.250000  0.250000  0.107143     12.000000
  0.321429  0.250000  0.107143     12.000000
  0.392857  0.250000  0.107143     12.000000
  0.464286  0.250000  0.107143     12.000000
 -0.464286  0.250000  0.107143     12.000000
 -0.392857  0.250000  0.107143      6.000000
 -0.035714  0.250000  0.107143      6.000000
  0.035714  0.321429  0.107143     12.000000
  0.107143  0.321429  0.107143     12.000000
  0.178571  0.321429  0.107143     12.000000
  0.250000  0.321429  0.107143     12.000000
  0.321429  0.321429  0.107143     12.000000
  0.392857  0.321429  0.107143     12.000000
  0.464286  0.321429  0.107143      6.000000
 -0.107143  0.321429  0.107143      6.000000
 -0.035714  0.321429  0.107143     12.000000
  0.035714  0.392857  0.107143     12.000000
  0.107143  0.392857  0.107143     12.000000
  0.178571  0.392857  0.107143     12.000000
  0.250000  0.392857  0.107143     12.000000
  0.321429  0.392857  0.107143      6.000000
 -0.178571  0.392857  0.107143      6.000000
 -0.107143  0.392857  0.107143     12.000000
 -0.035714  0.392857  0.107143     12.000000
  0.035714  0.464286  0.107143     12.000000
  0.107143  0.464286  0.107143     12.000000
  0.178571  0.464286  0.107143      6.000000
 -0.250000  0.464286  0.107143      6.000000
 -0.178571  0.464286  0.107143     12.000000
 -0.107143  0.464286  0.107143     12.000000
 -0.035714  0.464286  0.107143     12.000000
  0.035714 -0.464286  0.107143      6.000000
 -0.321429 -0.464286  0.107143      6.000000
 -0.250000 -0.464286  0.107143     12.000000
 -0.178571 -0.464286  0.107143     12.000000
 -0.107143 -0.464286  0.107143     12.000000
 -0.035714 -0.464286  0.107143     12.000000
 -0.392857 -0.392857  0.107143      6.000000
 -0.321429 -0.392857  0.107143     12.000000
 -0.250000 -0.392857  0.107143     12.000000
 -0.178571 -0.392857  0.107143     12.000000
 -0.107143 -0.392857  0.107143      6.000000
 -0.464286 -0.321429  0.107143      6.000000
 -0.392857 -0.321429  0.107143     12.000000
 -0.321429 -0.321429  0.107143     12.000000
 -0.250000 -0.321429  0.107143      6.000000
  0.464286 -0.250000  0.107143      6.000000
 -0.464286 -0.250000  0.107143     12.000000
 -0.392857 -0.250000  0.107143      6.000000
  0.392857 -0.178571  0.107143      6.000000
  0.464286 -0.178571  0.107143      6.000000
  0.321429 -0.107143  0.107143      2.000000
  0.178571  0.178571  0.178571      6.000000
  0.250000  0.178571  0.178571     12.000000
  0.321429  0.178571  0.178571     12.000000
  0.392857  0.178571  0.178571     12.000000
  0.464286  0.178571  0.178571     12.000000
  0.107143  0.250000  0.178571      6.000000
  0.178571  0.250000  0.178571     12.000000
  0.250000  0.250000  0.178571     12.000000
  0.321429  0.250000  0.178571     12.000000
  0.392857  0.250000  0.178571     12.000000
  0.464286  0.250000  0.178571     12.000000
 -0.464286  0.250000  0.178571     12.000000
 -0.392857  0.250000  0.178571     12.000000
 -0.321429  0.250000  0.178571      6.000000
  0.035714  0.321429  0.178571      6.000000
  0.107143  0.321429  0.178571     12.000000
  0.178571  0.321429  0.178571     12.000000
  0.250000  0.321429  0.178571     12.000000
  0.321429  0.321429  0.178571     12.000000
  0.392857  0.321429  0.178571     12.000000
  0.464286  0.321429  0.178571     12.000000
 -0.464286  0.321429  0.178571      6.000000
  0.035714  0.392857  0.178571     12.000000
  0.107143  0.392857  0.178571     12.000000
  0.178571  0.392857  0.178571     12.000000
  0.250000  0.392857  0.178571     12.000000
  0.321429  0.392857  0.178571     12.000000
  0.392857  0.392857  0.178571      6.000000
 -0.035714  0.392857  0.178571      6.000000
  0.035714  0.464286  0.178571     12.000000
  0.107143  0.464286  0.178571     12.000000
  0.178571  0.464286  0.178571     12.000000
  0.250000  0.464286  0.178571      6.000000
 -0.107143  0.464286  0.178571      6.000000
 -0.035714  0.464286  0.178571     12.000000
  0.035714 -0.464286  0.178571     12.000000
  0.107143 -0.464286  0.178571      6.000000
 -0.178571 -0.464286  0.178571      6.000000
 -0.107143 -0.464286  0.178571     12.000000
 -0.035714 -0.464286  0.178571     12.000000
 -0.250000 -0.392857  0.178571      6.000000
 -0.178571 -0.392857  0.178571     12.000000
 -0.107143 -0.392857  0.178571     12.000000
 -0.035714 -0.392857  0.178571      6.000000
 -0.321429 -0.321429  0.178571      6.000000
 -0.250000 -0.321429  0.178571     12.000000
 -0.178571 -0.321429  0.178571      6.000000
 -0.392857 -0.250000  0.178571      6.000000
 -0.321429 -0.250000  0.178571      6.000000
 -0.464286 -0.178571  0.178571      2.000000
  0.250000  0.250000  0.250000      6.000000
  0.321429  0.250000  0.250000     12.000000
  0.392857  0.250000  0.250000     12.000000
  0.464286  0.250000  0.250000     12.000000
  0.178571  0.321429  0.250000      6.000000
  0.250000  0.321429  0.250000     12.000000
  0.321429  0.321429  0.250000     12.000000
  0.392857  0.321429  0.250000     12.000000
  0.464286  0.321429  0.250000     12.000000
 -0.464286  0.321429  0.250000     12.000000
 -0.392857  0.321429  0.250000      6.000000
  0.107143  0.392857  0.250000      6.000000
  0.178571  0.392857  0.250000     12.000000
  0.250000  0.392857  0.250000     12.000000
  0.321429  0.392857  0.250000     12.000000
  0.392857  0.392857  0.250000     12.000000
  0.464286  0.392857  0.250000      6.000000
  0.035714  0.464286  0.250000      6.000000
  0.107143  0.464286  0.250000     12.000000
  0.178571  0.464286  0.250000     12.000000
  0.250000  0.464286  0.250000     12.000000
  0.321429  0.464286  0.250000      6.000000
  0.035714 -0.464286  0.250000     12.000000
  0.107143 -0.464286  0.250000     12.000000
  0.178571 -0.464286  0.250000      6.000000
 -0.035714 -0.464286  0.250000      6.000000
  0.035714 -0.392857  0.250000      6.000000
 -0.107143 -0.392857  0.250000      6.000000
 -0.035714 -0.392857  0.250000     12.000000
 -0.178571 -0.321429  0.250000      6.000000
 -0.107143 -0.321429  0.250000      6.000000
 -0.250000 -0.250000  0.250000      2.000000
  0.321429  0.321429  0.321429      6.000000
  0.392857  0.321429  0.321429     12.000000
  0.464286  0.321429  0.321429     12.000000
  0.250000  0.392857  0.321429      6.000000
  0.321429  0.392857  0.321429     12.000000
  0.392857  0.392857  0.321429     12.000000
  0.464286  0.392857  0.321429     12.000000
 -0.464286  0.392857  0.321429      6.000000
  0.178571  0.464286  0.321429      6.000000
  0.250000  0.464286  0.321429     12.000000
  0.321429  0.464286  0.321429     12.000000
  0.392857  0.464286  0.321429      6.000000
  0.107143 -0.464286  0.321429      6.000000
  0.178571 -0.464286  0.321429     12.000000
  0.250000 -0.464286  0.321429      6.000000
  0.035714 -0.392857  0.321429      6.000000
  0.107143 -0.392857  0.321429      6.000000
 -0.035714 -0.321429  0.321429      2.000000
  0.392857  0.392857  0.392857      6.000000
  0.464286  0.392857  0.392857     12.000000
  0.321429  0.464286  0.392857      6.000000
  0.392857  0.464286  0.392857     12.000000
  0.464286  0.464286  0.392857      6.000000
  0.250000 -0.464286  0.392857      6.000000
  0.321429 -0.464286  0.392857      6.000000
  0.178571 -0.392857  0.392857      2.000000
  0.464286  0.464286  0.464286      6.000000
  0.392857 -0.464286  0.464286      2.000000
 
 Following cartesian coordinates:
            Coordinates               Weight
  0.008209 -0.004739  0.006705      6.000000
  0.008209 -0.014218  0.020114     12.000000
  0.008209 -0.023697  0.033523     12.000000
  0.008209 -0.033176  0.046933     12.000000
  0.008209 -0.042655  0.060342     12.000000
  0.008209 -0.052134  0.073751     12.000000
  0.008209 -0.061613  0.087161     12.000000
  0.016418 -0.018958  0.006705     12.000000
  0.016418 -0.028437  0.020114     12.000000
  0.016418 -0.037916  0.033523     12.000000
  0.016418 -0.047395  0.046933     12.000000
  0.016418 -0.056874  0.060342     12.000000
  0.016418 -0.066353  0.073751     12.000000
  0.016418 -0.075832  0.087161     12.000000
  0.016418  0.047395 -0.087161     12.000000
  0.016418  0.037916 -0.073751     12.000000
  0.016418  0.028437 -0.060342     12.000000
  0.016418  0.018958 -0.046933     12.000000
  0.016418  0.009479 -0.033523      6.000000
  0.016418 -0.009479 -0.006705      6.000000
  0.024627 -0.033176  0.006705     12.000000
  0.024627 -0.042655  0.020114     12.000000
  0.024627 -0.052134  0.033523     12.000000
  0.024627 -0.061613  0.046933     12.000000
  0.024627 -0.071092  0.060342     12.000000
  0.024627 -0.080571  0.073751     12.000000
  0.024627 -0.090050  0.087161     12.000000
  0.024627  0.033176 -0.087161     12.000000
  0.024627  0.023697 -0.073751     12.000000
  0.024627  0.014218 -0.060342      6.000000
  0.024627 -0.014218 -0.020114      6.000000
  0.024627 -0.023697 -0.006705     12.000000
  0.032836 -0.047395  0.006705     12.000000
  0.032836 -0.056874  0.020114     12.000000
  0.032836 -0.066353  0.033523     12.000000
  0.032836 -0.075832  0.046933     12.000000
  0.032836 -0.085311  0.060342     12.000000
  0.032836 -0.094790  0.073751     12.000000
  0.032836 -0.104269  0.087161     12.000000
  0.032836  0.018958 -0.087161      6.000000
  0.032836 -0.018958 -0.033523      6.000000
  0.032836 -0.028437 -0.020114     12.000000
  0.032836 -0.037916 -0.006705     12.000000
  0.041045 -0.061613  0.006705     12.000000
  0.041045 -0.071092  0.020114     12.000000
  0.041045 -0.080571  0.033523     12.000000
  0.041045 -0.090050  0.046933     12.000000
  0.041045 -0.099529  0.060342     12.000000
  0.041045 -0.109008  0.073751      6.000000
  0.041045 -0.023697 -0.046933      6.000000
  0.041045 -0.033176 -0.033523     12.000000
  0.041045 -0.042655 -0.020114     12.000000
  0.041045 -0.052134 -0.006705     12.000000
  0.049254 -0.075832  0.006705     12.000000
  0.049254 -0.085311  0.020114     12.000000
  0.049254 -0.094790  0.033523     12.000000
  0.049254 -0.104269  0.046933      6.000000
  0.049254 -0.028437 -0.060342      6.000000
  0.049254 -0.037916 -0.046933     12.000000
  0.049254 -0.047395 -0.033523     12.000000
  0.049254 -0.056874 -0.020114     12.000000
  0.049254 -0.066353 -0.006705     12.000000
  0.057463 -0.090050  0.006705     12.000000
  0.057463 -0.099529  0.020114      6.000000
  0.057463 -0.033176 -0.073751      6.000000
  0.057463 -0.042655 -0.060342     12.000000
  0.057463 -0.052134 -0.046933     12.000000
  0.057463 -0.061613 -0.033523     12.000000
  0.057463 -0.071092 -0.020114     12.000000
  0.057463 -0.080571 -0.006705     12.000000
 -0.049254  0.161143 -0.087161      6.000000
 -0.049254  0.151664 -0.073751     12.000000
 -0.049254  0.142185 -0.060342     12.000000
 -0.049254  0.132706 -0.046933     12.000000
 -0.049254  0.123227 -0.033523     12.000000
 -0.049254  0.113748 -0.020114     12.000000
 -0.049254  0.104269 -0.006705      6.000000
 -0.041045  0.023697  0.087161      6.000000
 -0.041045  0.146924 -0.087161     12.000000
 -0.041045  0.137445 -0.073751     12.000000
 -0.041045  0.127966 -0.060342     12.000000
 -0.041045  0.118487 -0.046933     12.000000
 -0.041045  0.109008 -0.033523      6.000000
 -0.032836  0.018958  0.073751      6.000000
 -0.032836  0.009479  0.087161     12.000000
 -0.032836  0.132706 -0.087161     12.000000
 -0.032836  0.123227 -0.073751     12.000000
 -0.032836  0.113748 -0.060342      6.000000
 -0.024627  0.014218  0.060342      6.000000
 -0.024627  0.004739  0.073751     12.000000
 -0.024627 -0.004739  0.087161     12.000000
 -0.024627  0.118487 -0.087161      6.000000
 -0.016418  0.009479  0.046933      6.000000
 -0.016418  0.000000  0.060342     12.000000
 -0.016418 -0.009479  0.073751      6.000000
 -0.008209  0.004739  0.033523      6.000000
 -0.008209 -0.004739  0.046933      6.000000
  0.000000  0.000000  0.020114      2.000000
  0.024627 -0.014218  0.020114      6.000000
  0.024627 -0.023697  0.033523     12.000000
  0.024627 -0.033176  0.046933     12.000000
  0.024627 -0.042655  0.060342     12.000000
  0.024627 -0.052134  0.073751     12.000000
  0.024627 -0.061613  0.087161     12.000000
  0.032836 -0.018958  0.006705      6.000000
  0.032836 -0.028437  0.020114     12.000000
  0.032836 -0.037916  0.033523     12.000000
  0.032836 -0.047395  0.046933     12.000000
  0.032836 -0.056874  0.060342     12.000000
  0.032836 -0.066353  0.073751     12.000000
  0.032836 -0.075832  0.087161     12.000000
  0.032836  0.047395 -0.087161     12.000000
  0.032836  0.037916 -0.073751     12.000000
  0.032836  0.028437 -0.060342     12.000000
  0.032836  0.018958 -0.046933      6.000000
  0.041045 -0.033176  0.006705     12.000000
  0.041045 -0.042655  0.020114     12.000000
  0.041045 -0.052134  0.033523     12.000000
  0.041045 -0.061613  0.046933     12.000000
  0.041045 -0.071092  0.060342     12.000000
  0.041045 -0.080571  0.073751     12.000000
  0.041045 -0.090050  0.087161     12.000000
  0.041045  0.033176 -0.087161     12.000000
  0.041045  0.023697 -0.073751      6.000000
  0.041045 -0.023697 -0.006705      6.000000
  0.049254 -0.047395  0.006705     12.000000
  0.049254 -0.056874  0.020114     12.000000
  0.049254 -0.066353  0.033523     12.000000
  0.049254 -0.075832  0.046933     12.000000
  0.049254 -0.085311  0.060342     12.000000
  0.049254 -0.094790  0.073751     12.000000
  0.049254 -0.104269  0.087161      6.000000
  0.049254 -0.028437 -0.020114      6.000000
  0.049254 -0.037916 -0.006705     12.000000
  0.057463 -0.061613  0.006705     12.000000
  0.057463 -0.071092  0.020114     12.000000
  0.057463 -0.080571  0.033523     12.000000
  0.057463 -0.090050  0.046933     12.000000
  0.057463 -0.099529  0.060342      6.000000
  0.057463 -0.033176 -0.033523      6.000000
  0.057463 -0.042655 -0.020114     12.000000
  0.057463 -0.052134 -0.006705     12.000000
  0.065672 -0.075832  0.006705     12.000000
  0.065672 -0.085311  0.020114     12.000000
  0.065672 -0.094790  0.033523      6.000000
  0.065672 -0.037916 -0.046933      6.000000
  0.065672 -0.047395 -0.033523     12.000000
  0.065672 -0.056874 -0.020114     12.000000
  0.065672 -0.066353 -0.006705     12.000000
 -0.041045  0.109008  0.006705      6.000000
 -0.041045  0.156403 -0.060342      6.000000
 -0.041045  0.146924 -0.046933     12.000000
 -0.041045  0.137445 -0.033523     12.000000
 -0.041045  0.127966 -0.020114     12.000000
 -0.041045  0.118487 -0.006705     12.000000
 -0.032836  0.151664 -0.073751      6.000000
 -0.032836  0.142185 -0.060342     12.000000
 -0.032836  0.132706 -0.046933     12.000000
 -0.032836  0.123227 -0.033523     12.000000
 -0.032836  0.113748 -0.020114      6.000000
 -0.024627  0.146924 -0.087161      6.000000
 -0.024627  0.137445 -0.073751     12.000000
 -0.024627  0.127966 -0.060342     12.000000
 -0.024627  0.118487 -0.046933      6.000000
 -0.016418  0.009479  0.087161      6.000000
 -0.016418  0.132706 -0.087161     12.000000
 -0.016418  0.123227 -0.073751      6.000000
 -0.008209  0.004739  0.073751      6.000000
 -0.008209 -0.004739  0.087161      6.000000
  0.000000  0.000000  0.060342      2.000000
  0.041045 -0.023697  0.033523      6.000000
  0.041045 -0.033176  0.046933     12.000000
  0.041045 -0.042655  0.060342     12.000000
  0.041045 -0.052134  0.073751     12.000000
  0.041045 -0.061613  0.087161     12.000000
  0.049254 -0.028437  0.020114      6.000000
  0.049254 -0.037916  0.033523     12.000000
  0.049254 -0.047395  0.046933     12.000000
  0.049254 -0.056874  0.060342     12.000000
  0.049254 -0.066353  0.073751     12.000000
  0.049254 -0.075832  0.087161     12.000000
  0.049254  0.047395 -0.087161     12.000000
  0.049254  0.037916 -0.073751     12.000000
  0.049254  0.028437 -0.060342      6.000000
  0.057463 -0.033176  0.006705      6.000000
  0.057463 -0.042655  0.020114     12.000000
  0.057463 -0.052134  0.033523     12.000000
  0.057463 -0.061613  0.046933     12.000000
  0.057463 -0.071092  0.060342     12.000000
  0.057463 -0.080571  0.073751     12.000000
  0.057463 -0.090050  0.087161     12.000000
  0.057463  0.033176 -0.087161      6.000000
  0.065672 -0.047395  0.006705     12.000000
  0.065672 -0.056874  0.020114     12.000000
  0.065672 -0.066353  0.033523     12.000000
  0.065672 -0.075832  0.046933     12.000000
  0.065672 -0.085311  0.060342     12.000000
  0.065672 -0.094790  0.073751      6.000000
  0.065672 -0.037916 -0.006705      6.000000
  0.073881 -0.061613  0.006705     12.000000
  0.073881 -0.071092  0.020114     12.000000
  0.073881 -0.080571  0.033523     12.000000
  0.073881 -0.090050  0.046933      6.000000
  0.073881 -0.042655 -0.020114      6.000000
  0.073881 -0.052134 -0.006705     12.000000
 -0.032836  0.123227  0.006705     12.000000
 -0.032836  0.113748  0.020114      6.000000
 -0.032836  0.151664 -0.033523      6.000000
 -0.032836  0.142185 -0.020114     12.000000
 -0.032836  0.132706 -0.006705     12.000000
 -0.024627  0.146924 -0.046933      6.000000
 -0.024627  0.137445 -0.033523     12.000000
 -0.024627  0.127966 -0.020114     12.000000
 -0.024627  0.118487 -0.006705      6.000000
 -0.016418  0.142185 -0.060342      6.000000
 -0.016418  0.132706 -0.046933     12.000000
 -0.016418  0.123227 -0.033523      6.000000
 -0.008209  0.137445 -0.073751      6.000000
 -0.008209  0.127966 -0.060342      6.000000
  0.000000  0.132706 -0.087161      2.000000
  0.057463 -0.033176  0.046933      6.000000
  0.057463 -0.042655  0.060342     12.000000
  0.057463 -0.052134  0.073751     12.000000
  0.057463 -0.061613  0.087161     12.000000
  0.065672 -0.037916  0.033523      6.000000
  0.065672 -0.047395  0.046933     12.000000
  0.065672 -0.056874  0.060342     12.000000
  0.065672 -0.066353  0.073751     12.000000
  0.065672 -0.075832  0.087161     12.000000
  0.065672  0.047395 -0.087161     12.000000
  0.065672  0.037916 -0.073751      6.000000
  0.073881 -0.042655  0.020114      6.000000
  0.073881 -0.052134  0.033523     12.000000
  0.073881 -0.061613  0.046933     12.000000
  0.073881 -0.071092  0.060342     12.000000
  0.073881 -0.080571  0.073751     12.000000
  0.073881 -0.090050  0.087161      6.000000
  0.082090 -0.047395  0.006705      6.000000
  0.082090 -0.056874  0.020114     12.000000
  0.082090 -0.066353  0.033523     12.000000
  0.082090 -0.075832  0.046933     12.000000
  0.082090 -0.085311  0.060342      6.000000
 -0.024627  0.137445  0.006705     12.000000
 -0.024627  0.127966  0.020114     12.000000
 -0.024627  0.118487  0.033523      6.000000
 -0.024627  0.146924 -0.006705      6.000000
 -0.016418  0.123227  0.006705      6.000000
 -0.016418  0.142185 -0.020114      6.000000
 -0.016418  0.132706 -0.006705     12.000000
 -0.008209  0.137445 -0.033523      6.000000
 -0.008209  0.127966 -0.020114      6.000000
  0.000000  0.132706 -0.046933      2.000000
  0.073881 -0.042655  0.060342      6.000000
  0.073881 -0.052134  0.073751     12.000000
  0.073881 -0.061613  0.087161     12.000000
  0.082090 -0.047395  0.046933      6.000000
  0.082090 -0.056874  0.060342     12.000000
  0.082090 -0.066353  0.073751     12.000000
  0.082090 -0.075832  0.087161     12.000000
  0.082090  0.047395 -0.087161      6.000000
  0.090299 -0.052134  0.033523      6.000000
  0.090299 -0.061613  0.046933     12.000000
  0.090299 -0.071092  0.060342     12.000000
  0.090299 -0.080571  0.073751      6.000000
 -0.016418  0.142185  0.020114      6.000000
 -0.016418  0.132706  0.033523     12.000000
 -0.016418  0.123227  0.046933      6.000000
 -0.008209  0.137445  0.006705      6.000000
 -0.008209  0.127966  0.020114      6.000000
  0.000000  0.132706 -0.006705      2.000000
  0.090299 -0.052134  0.073751      6.000000
  0.090299 -0.061613  0.087161     12.000000
  0.098508 -0.056874  0.060342      6.000000
  0.098508 -0.066353  0.073751     12.000000
  0.098508 -0.075832  0.087161      6.000000
 -0.008209  0.137445  0.046933      6.000000
 -0.008209  0.127966  0.060342      6.000000
  0.000000  0.132706  0.033523      2.000000
  0.106717 -0.061613  0.087161      6.000000
  0.000000  0.132706  0.073751      2.000000
 
 TETIRR: Found   4104 inequivalent tetrahedra from    16464


--------------------------------------------------------------------------------------------------------




 Dimension of arrays:
   k-Points           NKPTS =    280   number of bands    NBANDS=     48
   number of dos      NEDOS =   5000   number of ions     NIONS =      4
   non local maximal  LDIM  =      6   non local SUM 2l+1 LMDIM =     18
   total plane-waves  NPLWV =  41472
   max r-space proj   IRMAX =      1   max aug-charges    IRDMAX=   7105
   dimension x,y,z NGX =    32 NGY =   36 NGZ =   36
   dimension x,y,z NGXF=    48 NGYF=   48 NGZF=   48
   support grid    NGXF=    48 NGYF=   48 NGZF=   48
   ions per type =               1   3
 NGX,Y,Z   is equivalent  to a cutoff of   9.99, 11.23, 11.23 a.u.
 NGXF,Y,Z  is equivalent  to a cutoff of  14.98, 14.98, 14.98 a.u.


 I would recommend the setting:
   dimension x,y,z NGX =    32 NGY =   33 NGZ =   33
 SYSTEM =  Ag1Te3_ICSD_37186                       
 POSCAR =  Ag1Te3 #160.2 - (Ag1Te3_ICSD_37186) - Ag

 Startparameter for this run:
   NWRITE =      2    write-flag & timer
   PREC   = high      medium, high low
   ISTART =      0    job   : 0-new  1-cont  2-samecut
   ICHARG =      2    charge: 1-file 2-atom 10-const
   ISPIN  =      1    spin polarized calculation?
   LNONCOLLINEAR =      F non collinear calculations
   LSORBIT =      F    spin-orbit coupling
   INIWAV =      1    electr: 0-lowe 1-rand  2-diag
   LASPH  =      F    aspherical Exc in radial PAW
   METAGGA=      F    non-selfconsistent MetaGGA calc.

 Electronic Relaxation 1
   ENCUT  =  349.8 eV  25.71 Ry    5.07 a.u.   8.12  8.13  8.13*2*pi/ulx,y,z
   ENINI  =  349.8     initial cutoff
   ENAUG  =  412.5 eV  augmentation charge cutoff
   NELM   =    120;   NELMIN=  2; NELMDL=  0     # of ELM steps 
   EDIFF  = 0.1E-05   stopping-criterion for ELM
   LREAL  =      F    real-space projection
   LCOMPAT=      F    compatible to vasp.4.4
   LREAL_COMPAT= F    compatible to vasp.4.5.1-3
   GGA_COMPAT  = T    GGA compatible to vasp.4.4-vasp.4.6
   LMAXPAW     = -100 max onsite density
   LMAXMIX     =    4 max onsite mixed and CHGCAR
   VOSKOWN=      0    Vosko Wilk Nusair interpolation
   ROPT   =    0.00000   0.00000
 Ionic relaxation
   EDIFFG = 0.1E-04   stopping-criterion for IOM
   NSW    =      0    number of steps for IOM
   NBLOCK =      1;   KBLOCK =      1    inner block; outer block 
   IBRION =     -1    ionic relax: 0-MD 1-quasi-New 2-CG
   NFREE  =      1    steps in history (QN), initial steepest desc. (CG)
   ISIF   =      2    stress and relaxation
   IWAVPR =     10    prediction:  0-non 1-charg 2-wave 3-comb
   ISYM   =      2    0-nonsym 1-usesym 2-fastsym
   LCORR  =      T    Harris-Foulkes like correction to forces

   POTIM  =   0.50    time-step for ionic-motion
   TEIN   =    0.0    initial temperature
   TEBEG  =    0.0;   TEEND  =   0.0 temperature during run
   SMASS  =  -3.00    Nose mass-parameter (am)
   estimated Nose-frequenzy (Omega)   =  0.10E-29 period in steps =****** mass=  -0.648E-27a.u.
   NPACO  =    256;   APACO  = 16.0  distance and # of slots for P.C.
   PSTRESS=    0.0 pullay stress

  Mass of Ions in am
   POMASS = 107.87127.60
  Ionic Valenz
   ZVAL   =  11.00  6.00
  Atomic Wigner-Seitz radii
   RWIGS  =  -1.00 -1.00
   NELECT =      29.0000    total number of electrons
   NUPDOWN=      -1.0000    fix difference up-down

 DOS related values:
   EMIN   = -30.00;   EMAX   = 45.00  energy-range for DOS
   ISMEAR =    -5;   SIGMA  =   0.05  broadening in eV -4-tet -1-fermi 0-gaus

 Electronic relaxation 2 (details)
   IALGO  =     38    algorithm
   LDIAG  =      T    sub-space diagonalisation
   IMIX   =      4    mixing-type and parameters
     AMIX     =   0.40;   BMIX     =  1.00
     AMIX_MAG =   1.60;   BMIX_MAG =  1.00
     AMIN     =   0.10
     WC   =   100.;   INIMIX=   1;  MIXPRE=   1

 Intra band minimization:
   WEIMIN = 0.0000     energy-eigenvalue tresh-hold
   EBREAK =  0.54E-08  absolut break condition
   DEPER  =   0.30     relativ break condition  

   TIME   =   0.10     timestep for ELM

  volume/ion in A,a.u.               =      29.11       196.41
  Fermi-wavevector in a.u.,eV,Ry     =   1.030061 14.436134  1.061026

 Second variation
   LSECVAR=     F    do a second variation
 
 Write flags
   LWAVE  =      F    write WAVECAR
   LCHARG =      T    write CHGCAR
   LVTOT  =      F    write LOCPOT, local potential
   LELF   =      T    write electronic localiz. function (ELF)
   LORBIT =     10    0 simple, 1 ext, 2 COOP (PROOUT)


 Dipole corrections
   IDIPOL =      0    1-x, 2-y, 3-z
   LDIPOL =      F    correct potential

 LDA+U is selected, type is set to LDAUTYPE =  2
   angular momentum for each species LDAUL =     2    0
   U (eV)           for each species LDAUU =   4.0  0.0
   J (eV)           for each species LDAUJ =   0.0  0.0


--------------------------------------------------------------------------------------------------------


 Static calculation
 charge density will be updated during run
 non-spin polarized calculation
 Variant of blocked Davidson
 Davidson routine will perform the subspace rotation
 performe sub-space diagonalisation
    after iterative eigenvector-optimisation
 modified Broyden-mixing scheme, WC =      100.0
 initial mixing is a Kerker type mixing with AMIX =  0.4000 and BMIX =      1.0000
 Hartree-type preconditioning will be used
 using additional bands           33
 reciprocal scheme for non local part
 use partial core corrections
 calculate Harris-corrections to forces 
   (improved forces if not selfconsistent)
 use gradient corrections 
 use of overlap-Matrix (Vanderbilt PP)
 Fermi weights with tetrahedron method with Bloechl corrections


--------------------------------------------------------------------------------------------------------


  energy-cutoff  :      349.78
  volume of cell :      116.42
      direct lattice vectors                 reciprocal lattice vectors
     0.000000000  0.000000000  5.326773463     0.000000000 -0.132705655  0.187730904
     4.350607890 -2.511824637 -1.775591154     0.114926468 -0.199058482  0.000000000
     4.350607890  2.511824637  1.775591154     0.114926468  0.199058482  0.000000000

  length of vectors
     5.326773463  5.328205698  5.328205698     0.229899290  0.229852937  0.229852937


 
 k-points in units of 2pi/SCALE and weight: KPOINTS File, automatically generated by
   0.00820903 -0.00473949  0.00670468       0.002
   0.00820903 -0.01421846  0.02011403       0.004
   0.00820903 -0.02369744  0.03352338       0.004
   0.00820903 -0.03317641  0.04693273       0.004
   0.00820903 -0.04265539  0.06034208       0.004
   0.00820903 -0.05213436  0.07375143       0.004
   0.00820903 -0.06161334  0.08716078       0.004
   0.01641807 -0.01895795  0.00670468       0.004
   0.01641807 -0.02843693  0.02011403       0.004
   0.01641807 -0.03791590  0.03352338       0.004
   0.01641807 -0.04739488  0.04693273       0.004
   0.01641807 -0.05687385  0.06034208       0.004
   0.01641807 -0.06635283  0.07375143       0.004
   0.01641807 -0.07583180  0.08716078       0.004
   0.01641807  0.04739488 -0.08716078       0.004
   0.01641807  0.03791590 -0.07375143       0.004
   0.01641807  0.02843693 -0.06034208       0.004
   0.01641807  0.01895795 -0.04693273       0.004
   0.01641807  0.00947898 -0.03352338       0.002
   0.01641807 -0.00947898 -0.00670468       0.002
   0.02462710 -0.03317641  0.00670468       0.004
   0.02462710 -0.04265539  0.02011403       0.004
   0.02462710 -0.05213436  0.03352338       0.004
   0.02462710 -0.06161334  0.04693273       0.004
   0.02462710 -0.07109232  0.06034208       0.004
   0.02462710 -0.08057129  0.07375143       0.004
   0.02462710 -0.09005027  0.08716078       0.004
   0.02462710  0.03317641 -0.08716078       0.004
   0.02462710  0.02369744 -0.07375143       0.004
   0.02462710  0.01421846 -0.06034208       0.002
   0.02462710 -0.01421846 -0.02011403       0.002
   0.02462710 -0.02369744 -0.00670468       0.004
   0.03283613 -0.04739488  0.00670468       0.004
   0.03283613 -0.05687385  0.02011403       0.004
   0.03283613 -0.06635283  0.03352338       0.004
   0.03283613 -0.07583180  0.04693273       0.004
   0.03283613 -0.08531078  0.06034208       0.004
   0.03283613 -0.09478975  0.07375143       0.004
   0.03283613 -0.10426873  0.08716078       0.004
   0.03283613  0.01895795 -0.08716078       0.002
   0.03283613 -0.01895795 -0.03352338       0.002
   0.03283613 -0.02843693 -0.02011403       0.004
   0.03283613 -0.03791590 -0.00670468       0.004
   0.04104517 -0.06161334  0.00670468       0.004
   0.04104517 -0.07109232  0.02011403       0.004
   0.04104517 -0.08057129  0.03352338       0.004
   0.04104517 -0.09005027  0.04693273       0.004
   0.04104517 -0.09952924  0.06034208       0.004
   0.04104517 -0.10900822  0.07375143       0.002
   0.04104517 -0.02369744 -0.04693273       0.002
   0.04104517 -0.03317641 -0.03352338       0.004
   0.04104517 -0.04265539 -0.02011403       0.004
   0.04104517 -0.05213436 -0.00670468       0.004
   0.04925420 -0.07583180  0.00670468       0.004
   0.04925420 -0.08531078  0.02011403       0.004
   0.04925420 -0.09478975  0.03352338       0.004
   0.04925420 -0.10426873  0.04693273       0.002
   0.04925420 -0.02843693 -0.06034208       0.002
   0.04925420 -0.03791590 -0.04693273       0.004
   0.04925420 -0.04739488 -0.03352338       0.004
   0.04925420 -0.05687385 -0.02011403       0.004
   0.04925420 -0.06635283 -0.00670468       0.004
   0.05746323 -0.09005027  0.00670468       0.004
   0.05746323 -0.09952924  0.02011403       0.002
   0.05746323 -0.03317641 -0.07375143       0.002
   0.05746323 -0.04265539 -0.06034208       0.004
   0.05746323 -0.05213436 -0.04693273       0.004
   0.05746323 -0.06161334 -0.03352338       0.004
   0.05746323 -0.07109232 -0.02011403       0.004
   0.05746323 -0.08057129 -0.00670468       0.004
  -0.04925420  0.16114258 -0.08716078       0.002
  -0.04925420  0.15166361 -0.07375143       0.004
  -0.04925420  0.14218463 -0.06034208       0.004
  -0.04925420  0.13270565 -0.04693273       0.004
  -0.04925420  0.12322668 -0.03352338       0.004
  -0.04925420  0.11374770 -0.02011403       0.004
  -0.04925420  0.10426873 -0.00670468       0.002
  -0.04104517  0.02369744  0.08716078       0.002
  -0.04104517  0.14692412 -0.08716078       0.004
  -0.04104517  0.13744514 -0.07375143       0.004
  -0.04104517  0.12796617 -0.06034208       0.004
  -0.04104517  0.11848719 -0.04693273       0.004
  -0.04104517  0.10900822 -0.03352338       0.002
  -0.03283613  0.01895795  0.07375143       0.002
  -0.03283613  0.00947898  0.08716078       0.004
  -0.03283613  0.13270565 -0.08716078       0.004
  -0.03283613  0.12322668 -0.07375143       0.004
  -0.03283613  0.11374770 -0.06034208       0.002
  -0.02462710  0.01421846  0.06034208       0.002
  -0.02462710  0.00473949  0.07375143       0.004
  -0.02462710 -0.00473949  0.08716078       0.004
  -0.02462710  0.11848719 -0.08716078       0.002
  -0.01641807  0.00947898  0.04693273       0.002
  -0.01641807  0.00000000  0.06034208       0.004
  -0.01641807 -0.00947898  0.07375143       0.002
  -0.00820903  0.00473949  0.03352338       0.002
  -0.00820903 -0.00473949  0.04693273       0.002
   0.00000000  0.00000000  0.02011403       0.001
   0.02462710 -0.01421846  0.02011403       0.002
   0.02462710 -0.02369744  0.03352338       0.004
   0.02462710 -0.03317641  0.04693273       0.004
   0.02462710 -0.04265539  0.06034208       0.004
   0.02462710 -0.05213436  0.07375143       0.004
   0.02462710 -0.06161334  0.08716078       0.004
   0.03283613 -0.01895795  0.00670468       0.002
   0.03283613 -0.02843693  0.02011403       0.004
   0.03283613 -0.03791590  0.03352338       0.004
   0.03283613 -0.04739488  0.04693273       0.004
   0.03283613 -0.05687385  0.06034208       0.004
   0.03283613 -0.06635283  0.07375143       0.004
   0.03283613 -0.07583180  0.08716078       0.004
   0.03283613  0.04739488 -0.08716078       0.004
   0.03283613  0.03791590 -0.07375143       0.004
   0.03283613  0.02843693 -0.06034208       0.004
   0.03283613  0.01895795 -0.04693273       0.002
   0.04104517 -0.03317641  0.00670468       0.004
   0.04104517 -0.04265539  0.02011403       0.004
   0.04104517 -0.05213436  0.03352338       0.004
   0.04104517 -0.06161334  0.04693273       0.004
   0.04104517 -0.07109232  0.06034208       0.004
   0.04104517 -0.08057129  0.07375143       0.004
   0.04104517 -0.09005027  0.08716078       0.004
   0.04104517  0.03317641 -0.08716078       0.004
   0.04104517  0.02369744 -0.07375143       0.002
   0.04104517 -0.02369744 -0.00670468       0.002
   0.04925420 -0.04739488  0.00670468       0.004
   0.04925420 -0.05687385  0.02011403       0.004
   0.04925420 -0.06635283  0.03352338       0.004
   0.04925420 -0.07583180  0.04693273       0.004
   0.04925420 -0.08531078  0.06034208       0.004
   0.04925420 -0.09478975  0.07375143       0.004
   0.04925420 -0.10426873  0.08716078       0.002
   0.04925420 -0.02843693 -0.02011403       0.002
   0.04925420 -0.03791590 -0.00670468       0.004
   0.05746323 -0.06161334  0.00670468       0.004
   0.05746323 -0.07109232  0.02011403       0.004
   0.05746323 -0.08057129  0.03352338       0.004
   0.05746323 -0.09005027  0.04693273       0.004
   0.05746323 -0.09952924  0.06034208       0.002
   0.05746323 -0.03317641 -0.03352338       0.002
   0.05746323 -0.04265539 -0.02011403       0.004
   0.05746323 -0.05213436 -0.00670468       0.004
   0.06567227 -0.07583180  0.00670468       0.004
   0.06567227 -0.08531078  0.02011403       0.004
   0.06567227 -0.09478975  0.03352338       0.002
   0.06567227 -0.03791590 -0.04693273       0.002
   0.06567227 -0.04739488 -0.03352338       0.004
   0.06567227 -0.05687385 -0.02011403       0.004
   0.06567227 -0.06635283 -0.00670468       0.004
  -0.04104517  0.10900822  0.00670468       0.002
  -0.04104517  0.15640309 -0.06034208       0.002
  -0.04104517  0.14692412 -0.04693273       0.004
  -0.04104517  0.13744514 -0.03352338       0.004
  -0.04104517  0.12796617 -0.02011403       0.004
  -0.04104517  0.11848719 -0.00670468       0.004
  -0.03283613  0.15166361 -0.07375143       0.002
  -0.03283613  0.14218463 -0.06034208       0.004
  -0.03283613  0.13270565 -0.04693273       0.004
  -0.03283613  0.12322668 -0.03352338       0.004
  -0.03283613  0.11374770 -0.02011403       0.002
  -0.02462710  0.14692412 -0.08716078       0.002
  -0.02462710  0.13744514 -0.07375143       0.004
  -0.02462710  0.12796617 -0.06034208       0.004
  -0.02462710  0.11848719 -0.04693273       0.002
  -0.01641807  0.00947898  0.08716078       0.002
  -0.01641807  0.13270565 -0.08716078       0.004
  -0.01641807  0.12322668 -0.07375143       0.002
  -0.00820903  0.00473949  0.07375143       0.002
  -0.00820903 -0.00473949  0.08716078       0.002
   0.00000000  0.00000000  0.06034208       0.001
   0.04104517 -0.02369744  0.03352338       0.002
   0.04104517 -0.03317641  0.04693273       0.004
   0.04104517 -0.04265539  0.06034208       0.004
   0.04104517 -0.05213436  0.07375143       0.004
   0.04104517 -0.06161334  0.08716078       0.004
   0.04925420 -0.02843693  0.02011403       0.002
   0.04925420 -0.03791590  0.03352338       0.004
   0.04925420 -0.04739488  0.04693273       0.004
   0.04925420 -0.05687385  0.06034208       0.004
   0.04925420 -0.06635283  0.07375143       0.004
   0.04925420 -0.07583180  0.08716078       0.004
   0.04925420  0.04739488 -0.08716078       0.004
   0.04925420  0.03791590 -0.07375143       0.004
   0.04925420  0.02843693 -0.06034208       0.002
   0.05746323 -0.03317641  0.00670468       0.002
   0.05746323 -0.04265539  0.02011403       0.004
   0.05746323 -0.05213436  0.03352338       0.004
   0.05746323 -0.06161334  0.04693273       0.004
   0.05746323 -0.07109232  0.06034208       0.004
   0.05746323 -0.08057129  0.07375143       0.004
   0.05746323 -0.09005027  0.08716078       0.004
   0.05746323  0.03317641 -0.08716078       0.002
   0.06567227 -0.04739488  0.00670468       0.004
   0.06567227 -0.05687385  0.02011403       0.004
   0.06567227 -0.06635283  0.03352338       0.004
   0.06567227 -0.07583180  0.04693273       0.004
   0.06567227 -0.08531078  0.06034208       0.004
   0.06567227 -0.09478975  0.07375143       0.002
   0.06567227 -0.03791590 -0.00670468       0.002
   0.07388130 -0.06161334  0.00670468       0.004
   0.07388130 -0.07109232  0.02011403       0.004
   0.07388130 -0.08057129  0.03352338       0.004
   0.07388130 -0.09005027  0.04693273       0.002
   0.07388130 -0.04265539 -0.02011403       0.002
   0.07388130 -0.05213436 -0.00670468       0.004
  -0.03283613  0.12322668  0.00670468       0.004
  -0.03283613  0.11374770  0.02011403       0.002
  -0.03283613  0.15166361 -0.03352338       0.002
  -0.03283613  0.14218463 -0.02011403       0.004
  -0.03283613  0.13270565 -0.00670468       0.004
  -0.02462710  0.14692412 -0.04693273       0.002
  -0.02462710  0.13744514 -0.03352338       0.004
  -0.02462710  0.12796617 -0.02011403       0.004
  -0.02462710  0.11848719 -0.00670468       0.002
  -0.01641807  0.14218463 -0.06034208       0.002
  -0.01641807  0.13270565 -0.04693273       0.004
  -0.01641807  0.12322668 -0.03352338       0.002
  -0.00820903  0.13744514 -0.07375143       0.002
  -0.00820903  0.12796617 -0.06034208       0.002
   0.00000000  0.13270565 -0.08716078       0.001
   0.05746323 -0.03317641  0.04693273       0.002
   0.05746323 -0.04265539  0.06034208       0.004
   0.05746323 -0.05213436  0.07375143       0.004
   0.05746323 -0.06161334  0.08716078       0.004
   0.06567227 -0.03791590  0.03352338       0.002
   0.06567227 -0.04739488  0.04693273       0.004
   0.06567227 -0.05687385  0.06034208       0.004
   0.06567227 -0.06635283  0.07375143       0.004
   0.06567227 -0.07583180  0.08716078       0.004
   0.06567227  0.04739488 -0.08716078       0.004
   0.06567227  0.03791590 -0.07375143       0.002
   0.07388130 -0.04265539  0.02011403       0.002
   0.07388130 -0.05213436  0.03352338       0.004
   0.07388130 -0.06161334  0.04693273       0.004
   0.07388130 -0.07109232  0.06034208       0.004
   0.07388130 -0.08057129  0.07375143       0.004
   0.07388130 -0.09005027  0.08716078       0.002
   0.08209033 -0.04739488  0.00670468       0.002
   0.08209033 -0.05687385  0.02011403       0.004
   0.08209033 -0.06635283  0.03352338       0.004
   0.08209033 -0.07583180  0.04693273       0.004
   0.08209033 -0.08531078  0.06034208       0.002
  -0.02462710  0.13744514  0.00670468       0.004
  -0.02462710  0.12796617  0.02011403       0.004
  -0.02462710  0.11848719  0.03352338       0.002
  -0.02462710  0.14692412 -0.00670468       0.002
  -0.01641807  0.12322668  0.00670468       0.002
  -0.01641807  0.14218463 -0.02011403       0.002
  -0.01641807  0.13270565 -0.00670468       0.004
  -0.00820903  0.13744514 -0.03352338       0.002
  -0.00820903  0.12796617 -0.02011403       0.002
   0.00000000  0.13270565 -0.04693273       0.001
   0.07388130 -0.04265539  0.06034208       0.002
   0.07388130 -0.05213436  0.07375143       0.004
   0.07388130 -0.06161334  0.08716078       0.004
   0.08209033 -0.04739488  0.04693273       0.002
   0.08209033 -0.05687385  0.06034208       0.004
   0.08209033 -0.06635283  0.07375143       0.004
   0.08209033 -0.07583180  0.08716078       0.004
   0.08209033  0.04739488 -0.08716078       0.002
   0.09029937 -0.05213436  0.03352338       0.002
   0.09029937 -0.06161334  0.04693273       0.004
   0.09029937 -0.07109232  0.06034208       0.004
   0.09029937 -0.08057129  0.07375143       0.002
  -0.01641807  0.14218463  0.02011403       0.002
  -0.01641807  0.13270565  0.03352338       0.004
  -0.01641807  0.12322668  0.04693273       0.002
  -0.00820903  0.13744514  0.00670468       0.002
  -0.00820903  0.12796617  0.02011403       0.002
   0.00000000  0.13270565 -0.00670468       0.001
   0.09029937 -0.05213436  0.07375143       0.002
   0.09029937 -0.06161334  0.08716078       0.004
   0.09850840 -0.05687385  0.06034208       0.002
   0.09850840 -0.06635283  0.07375143       0.004
   0.09850840 -0.07583180  0.08716078       0.002
  -0.00820903  0.13744514  0.04693273       0.002
  -0.00820903  0.12796617  0.06034208       0.002
   0.00000000  0.13270565  0.03352338       0.001
   0.10671743 -0.06161334  0.08716078       0.002
   0.00000000  0.13270565  0.07375143       0.001
 
 k-points in reciprocal lattice and weights: KPOINTS File, automatically generated by
   0.03571429  0.03571429  0.03571429       0.002
   0.10714286  0.03571429  0.03571429       0.004
   0.17857143  0.03571429  0.03571429       0.004
   0.25000000  0.03571429  0.03571429       0.004
   0.32142857  0.03571429  0.03571429       0.004
   0.39285714  0.03571429  0.03571429       0.004
   0.46428571  0.03571429  0.03571429       0.004
   0.03571429  0.10714286  0.03571429       0.004
   0.10714286  0.10714286  0.03571429       0.004
   0.17857143  0.10714286  0.03571429       0.004
   0.25000000  0.10714286  0.03571429       0.004
   0.32142857  0.10714286  0.03571429       0.004
   0.39285714  0.10714286  0.03571429       0.004
   0.46428571  0.10714286  0.03571429       0.004
  -0.46428571  0.10714286  0.03571429       0.004
  -0.39285714  0.10714286  0.03571429       0.004
  -0.32142857  0.10714286  0.03571429       0.004
  -0.25000000  0.10714286  0.03571429       0.004
  -0.17857143  0.10714286  0.03571429       0.002
  -0.03571429  0.10714286  0.03571429       0.002
   0.03571429  0.17857143  0.03571429       0.004
   0.10714286  0.17857143  0.03571429       0.004
   0.17857143  0.17857143  0.03571429       0.004
   0.25000000  0.17857143  0.03571429       0.004
   0.32142857  0.17857143  0.03571429       0.004
   0.39285714  0.17857143  0.03571429       0.004
   0.46428571  0.17857143  0.03571429       0.004
  -0.46428571  0.17857143  0.03571429       0.004
  -0.39285714  0.17857143  0.03571429       0.004
  -0.32142857  0.17857143  0.03571429       0.002
  -0.10714286  0.17857143  0.03571429       0.002
  -0.03571429  0.17857143  0.03571429       0.004
   0.03571429  0.25000000  0.03571429       0.004
   0.10714286  0.25000000  0.03571429       0.004
   0.17857143  0.25000000  0.03571429       0.004
   0.25000000  0.25000000  0.03571429       0.004
   0.32142857  0.25000000  0.03571429       0.004
   0.39285714  0.25000000  0.03571429       0.004
   0.46428571  0.25000000  0.03571429       0.004
  -0.46428571  0.25000000  0.03571429       0.002
  -0.17857143  0.25000000  0.03571429       0.002
  -0.10714286  0.25000000  0.03571429       0.004
  -0.03571429  0.25000000  0.03571429       0.004
   0.03571429  0.32142857  0.03571429       0.004
   0.10714286  0.32142857  0.03571429       0.004
   0.17857143  0.32142857  0.03571429       0.004
   0.25000000  0.32142857  0.03571429       0.004
   0.32142857  0.32142857  0.03571429       0.004
   0.39285714  0.32142857  0.03571429       0.002
  -0.25000000  0.32142857  0.03571429       0.002
  -0.17857143  0.32142857  0.03571429       0.004
  -0.10714286  0.32142857  0.03571429       0.004
  -0.03571429  0.32142857  0.03571429       0.004
   0.03571429  0.39285714  0.03571429       0.004
   0.10714286  0.39285714  0.03571429       0.004
   0.17857143  0.39285714  0.03571429       0.004
   0.25000000  0.39285714  0.03571429       0.002
  -0.32142857  0.39285714  0.03571429       0.002
  -0.25000000  0.39285714  0.03571429       0.004
  -0.17857143  0.39285714  0.03571429       0.004
  -0.10714286  0.39285714  0.03571429       0.004
  -0.03571429  0.39285714  0.03571429       0.004
   0.03571429  0.46428571  0.03571429       0.004
   0.10714286  0.46428571  0.03571429       0.002
  -0.39285714  0.46428571  0.03571429       0.002
  -0.32142857  0.46428571  0.03571429       0.004
  -0.25000000  0.46428571  0.03571429       0.004
  -0.17857143  0.46428571  0.03571429       0.004
  -0.10714286  0.46428571  0.03571429       0.004
  -0.03571429  0.46428571  0.03571429       0.004
  -0.46428571 -0.46428571  0.03571429       0.002
  -0.39285714 -0.46428571  0.03571429       0.004
  -0.32142857 -0.46428571  0.03571429       0.004
  -0.25000000 -0.46428571  0.03571429       0.004
  -0.17857143 -0.46428571  0.03571429       0.004
  -0.10714286 -0.46428571  0.03571429       0.004
  -0.03571429 -0.46428571  0.03571429       0.002
   0.46428571 -0.39285714  0.03571429       0.002
  -0.46428571 -0.39285714  0.03571429       0.004
  -0.39285714 -0.39285714  0.03571429       0.004
  -0.32142857 -0.39285714  0.03571429       0.004
  -0.25000000 -0.39285714  0.03571429       0.004
  -0.17857143 -0.39285714  0.03571429       0.002
   0.39285714 -0.32142857  0.03571429       0.002
   0.46428571 -0.32142857  0.03571429       0.004
  -0.46428571 -0.32142857  0.03571429       0.004
  -0.39285714 -0.32142857  0.03571429       0.004
  -0.32142857 -0.32142857  0.03571429       0.002
   0.32142857 -0.25000000  0.03571429       0.002
   0.39285714 -0.25000000  0.03571429       0.004
   0.46428571 -0.25000000  0.03571429       0.004
  -0.46428571 -0.25000000  0.03571429       0.002
   0.25000000 -0.17857143  0.03571429       0.002
   0.32142857 -0.17857143  0.03571429       0.004
   0.39285714 -0.17857143  0.03571429       0.002
   0.17857143 -0.10714286  0.03571429       0.002
   0.25000000 -0.10714286  0.03571429       0.002
   0.10714286 -0.03571429  0.03571429       0.001
   0.10714286  0.10714286  0.10714286       0.002
   0.17857143  0.10714286  0.10714286       0.004
   0.25000000  0.10714286  0.10714286       0.004
   0.32142857  0.10714286  0.10714286       0.004
   0.39285714  0.10714286  0.10714286       0.004
   0.46428571  0.10714286  0.10714286       0.004
   0.03571429  0.17857143  0.10714286       0.002
   0.10714286  0.17857143  0.10714286       0.004
   0.17857143  0.17857143  0.10714286       0.004
   0.25000000  0.17857143  0.10714286       0.004
   0.32142857  0.17857143  0.10714286       0.004
   0.39285714  0.17857143  0.10714286       0.004
   0.46428571  0.17857143  0.10714286       0.004
  -0.46428571  0.17857143  0.10714286       0.004
  -0.39285714  0.17857143  0.10714286       0.004
  -0.32142857  0.17857143  0.10714286       0.004
  -0.25000000  0.17857143  0.10714286       0.002
   0.03571429  0.25000000  0.10714286       0.004
   0.10714286  0.25000000  0.10714286       0.004
   0.17857143  0.25000000  0.10714286       0.004
   0.25000000  0.25000000  0.10714286       0.004
   0.32142857  0.25000000  0.10714286       0.004
   0.39285714  0.25000000  0.10714286       0.004
   0.46428571  0.25000000  0.10714286       0.004
  -0.46428571  0.25000000  0.10714286       0.004
  -0.39285714  0.25000000  0.10714286       0.002
  -0.03571429  0.25000000  0.10714286       0.002
   0.03571429  0.32142857  0.10714286       0.004
   0.10714286  0.32142857  0.10714286       0.004
   0.17857143  0.32142857  0.10714286       0.004
   0.25000000  0.32142857  0.10714286       0.004
   0.32142857  0.32142857  0.10714286       0.004
   0.39285714  0.32142857  0.10714286       0.004
   0.46428571  0.32142857  0.10714286       0.002
  -0.10714286  0.32142857  0.10714286       0.002
  -0.03571429  0.32142857  0.10714286       0.004
   0.03571429  0.39285714  0.10714286       0.004
   0.10714286  0.39285714  0.10714286       0.004
   0.17857143  0.39285714  0.10714286       0.004
   0.25000000  0.39285714  0.10714286       0.004
   0.32142857  0.39285714  0.10714286       0.002
  -0.17857143  0.39285714  0.10714286       0.002
  -0.10714286  0.39285714  0.10714286       0.004
  -0.03571429  0.39285714  0.10714286       0.004
   0.03571429  0.46428571  0.10714286       0.004
   0.10714286  0.46428571  0.10714286       0.004
   0.17857143  0.46428571  0.10714286       0.002
  -0.25000000  0.46428571  0.10714286       0.002
  -0.17857143  0.46428571  0.10714286       0.004
  -0.10714286  0.46428571  0.10714286       0.004
  -0.03571429  0.46428571  0.10714286       0.004
   0.03571429 -0.46428571  0.10714286       0.002
  -0.32142857 -0.46428571  0.10714286       0.002
  -0.25000000 -0.46428571  0.10714286       0.004
  -0.17857143 -0.46428571  0.10714286       0.004
  -0.10714286 -0.46428571  0.10714286       0.004
  -0.03571429 -0.46428571  0.10714286       0.004
  -0.39285714 -0.39285714  0.10714286       0.002
  -0.32142857 -0.39285714  0.10714286       0.004
  -0.25000000 -0.39285714  0.10714286       0.004
  -0.17857143 -0.39285714  0.10714286       0.004
  -0.10714286 -0.39285714  0.10714286       0.002
  -0.46428571 -0.32142857  0.10714286       0.002
  -0.39285714 -0.32142857  0.10714286       0.004
  -0.32142857 -0.32142857  0.10714286       0.004
  -0.25000000 -0.32142857  0.10714286       0.002
   0.46428571 -0.25000000  0.10714286       0.002
  -0.46428571 -0.25000000  0.10714286       0.004
  -0.39285714 -0.25000000  0.10714286       0.002
   0.39285714 -0.17857143  0.10714286       0.002
   0.46428571 -0.17857143  0.10714286       0.002
   0.32142857 -0.10714286  0.10714286       0.001
   0.17857143  0.17857143  0.17857143       0.002
   0.25000000  0.17857143  0.17857143       0.004
   0.32142857  0.17857143  0.17857143       0.004
   0.39285714  0.17857143  0.17857143       0.004
   0.46428571  0.17857143  0.17857143       0.004
   0.10714286  0.25000000  0.17857143       0.002
   0.17857143  0.25000000  0.17857143       0.004
   0.25000000  0.25000000  0.17857143       0.004
   0.32142857  0.25000000  0.17857143       0.004
   0.39285714  0.25000000  0.17857143       0.004
   0.46428571  0.25000000  0.17857143       0.004
  -0.46428571  0.25000000  0.17857143       0.004
  -0.39285714  0.25000000  0.17857143       0.004
  -0.32142857  0.25000000  0.17857143       0.002
   0.03571429  0.32142857  0.17857143       0.002
   0.10714286  0.32142857  0.17857143       0.004
   0.17857143  0.32142857  0.17857143       0.004
   0.25000000  0.32142857  0.17857143       0.004
   0.32142857  0.32142857  0.17857143       0.004
   0.39285714  0.32142857  0.17857143       0.004
   0.46428571  0.32142857  0.17857143       0.004
  -0.46428571  0.32142857  0.17857143       0.002
   0.03571429  0.39285714  0.17857143       0.004
   0.10714286  0.39285714  0.17857143       0.004
   0.17857143  0.39285714  0.17857143       0.004
   0.25000000  0.39285714  0.17857143       0.004
   0.32142857  0.39285714  0.17857143       0.004
   0.39285714  0.39285714  0.17857143       0.002
  -0.03571429  0.39285714  0.17857143       0.002
   0.03571429  0.46428571  0.17857143       0.004
   0.10714286  0.46428571  0.17857143       0.004
   0.17857143  0.46428571  0.17857143       0.004
   0.25000000  0.46428571  0.17857143       0.002
  -0.10714286  0.46428571  0.17857143       0.002
  -0.03571429  0.46428571  0.17857143       0.004
   0.03571429 -0.46428571  0.17857143       0.004
   0.10714286 -0.46428571  0.17857143       0.002
  -0.17857143 -0.46428571  0.17857143       0.002
  -0.10714286 -0.46428571  0.17857143       0.004
  -0.03571429 -0.46428571  0.17857143       0.004
  -0.25000000 -0.39285714  0.17857143       0.002
  -0.17857143 -0.39285714  0.17857143       0.004
  -0.10714286 -0.39285714  0.17857143       0.004
  -0.03571429 -0.39285714  0.17857143       0.002
  -0.32142857 -0.32142857  0.17857143       0.002
  -0.25000000 -0.32142857  0.17857143       0.004
  -0.17857143 -0.32142857  0.17857143       0.002
  -0.39285714 -0.25000000  0.17857143       0.002
  -0.32142857 -0.25000000  0.17857143       0.002
  -0.46428571 -0.17857143  0.17857143       0.001
   0.25000000  0.25000000  0.25000000       0.002
   0.32142857  0.25000000  0.25000000       0.004
   0.39285714  0.25000000  0.25000000       0.004
   0.46428571  0.25000000  0.25000000       0.004
   0.17857143  0.32142857  0.25000000       0.002
   0.25000000  0.32142857  0.25000000       0.004
   0.32142857  0.32142857  0.25000000       0.004
   0.39285714  0.32142857  0.25000000       0.004
   0.46428571  0.32142857  0.25000000       0.004
  -0.46428571  0.32142857  0.25000000       0.004
  -0.39285714  0.32142857  0.25000000       0.002
   0.10714286  0.39285714  0.25000000       0.002
   0.17857143  0.39285714  0.25000000       0.004
   0.25000000  0.39285714  0.25000000       0.004
   0.32142857  0.39285714  0.25000000       0.004
   0.39285714  0.39285714  0.25000000       0.004
   0.46428571  0.39285714  0.25000000       0.002
   0.03571429  0.46428571  0.25000000       0.002
   0.10714286  0.46428571  0.25000000       0.004
   0.17857143  0.46428571  0.25000000       0.004
   0.25000000  0.46428571  0.25000000       0.004
   0.32142857  0.46428571  0.25000000       0.002
   0.03571429 -0.46428571  0.25000000       0.004
   0.10714286 -0.46428571  0.25000000       0.004
   0.17857143 -0.46428571  0.25000000       0.002
  -0.03571429 -0.46428571  0.25000000       0.002
   0.03571429 -0.39285714  0.25000000       0.002
  -0.10714286 -0.39285714  0.25000000       0.002
  -0.03571429 -0.39285714  0.25000000       0.004
  -0.17857143 -0.32142857  0.25000000       0.002
  -0.10714286 -0.32142857  0.25000000       0.002
  -0.25000000 -0.25000000  0.25000000       0.001
   0.32142857  0.32142857  0.32142857       0.002
   0.39285714  0.32142857  0.32142857       0.004
   0.46428571  0.32142857  0.32142857       0.004
   0.25000000  0.39285714  0.32142857       0.002
   0.32142857  0.39285714  0.32142857       0.004
   0.39285714  0.39285714  0.32142857       0.004
   0.46428571  0.39285714  0.32142857       0.004
  -0.46428571  0.39285714  0.32142857       0.002
   0.17857143  0.46428571  0.32142857       0.002
   0.25000000  0.46428571  0.32142857       0.004
   0.32142857  0.46428571  0.32142857       0.004
   0.39285714  0.46428571  0.32142857       0.002
   0.10714286 -0.46428571  0.32142857       0.002
   0.17857143 -0.46428571  0.32142857       0.004
   0.25000000 -0.46428571  0.32142857       0.002
   0.03571429 -0.39285714  0.32142857       0.002
   0.10714286 -0.39285714  0.32142857       0.002
  -0.03571429 -0.32142857  0.32142857       0.001
   0.39285714  0.39285714  0.39285714       0.002
   0.46428571  0.39285714  0.39285714       0.004
   0.32142857  0.46428571  0.39285714       0.002
   0.39285714  0.46428571  0.39285714       0.004
   0.46428571  0.46428571  0.39285714       0.002
   0.25000000 -0.46428571  0.39285714       0.002
   0.32142857 -0.46428571  0.39285714       0.002
   0.17857143 -0.39285714  0.39285714       0.001
   0.46428571  0.46428571  0.46428571       0.002
   0.39285714 -0.46428571  0.46428571       0.001
 
 position of ions in fractional coordinates (direct lattice) 
   0.00547632  0.00000000  0.00000000
   0.50607034  0.49978733  0.00000000
   0.00628301  0.50021267  0.49978733
   0.50607034  0.00000000  0.50021267
 
 position of ions in cartesian coordinates  (Angst):
   0.00000000  0.00000000  0.02917111
   2.17437870 -1.25537813  1.80830408
   4.35060789 -0.00106838  0.03271293
   2.17622919  1.25644651  3.58389523
 


--------------------------------------------------------------------------------------------------------


 k-point  1 :  0.03570.03570.0357  plane waves:   1733
 k-point  2 :  0.10710.03570.0357  plane waves:   1735
 k-point  3 :  0.17860.03570.0357  plane waves:   1720
 k-point  4 :  0.25000.03570.0357  plane waves:   1731
 k-point  5 :  0.32140.03570.0357  plane waves:   1721
 k-point  6 :  0.39290.03570.0357  plane waves:   1734
 k-point  7 :  0.46430.03570.0357  plane waves:   1735
 k-point  8 :  0.03570.10710.0357  plane waves:   1734
 k-point  9 :  0.10710.10710.0357  plane waves:   1725
 k-point 10 :  0.17860.10710.0357  plane waves:   1726
 k-point 11 :  0.25000.10710.0357  plane waves:   1721
 k-point 12 :  0.32140.10710.0357  plane waves:   1730
 k-point 13 :  0.39290.10710.0357  plane waves:   1727
 k-point 14 :  0.46430.10710.0357  plane waves:   1727
 k-point 15 :  -.46430.10710.0357  plane waves:   1727
 k-point 16 :  -.39290.10710.0357  plane waves:   1730
 k-point 17 :  -.32140.10710.0357  plane waves:   1721
 k-point 18 :  -.25000.10710.0357  plane waves:   1726
 k-point 19 :  -.17860.10710.0357  plane waves:   1725
 k-point 20 :  -.03570.10710.0357  plane waves:   1738
 k-point 21 :  0.03570.17860.0357  plane waves:   1720
 k-point 22 :  0.10710.17860.0357  plane waves:   1726
 k-point 23 :  0.17860.17860.0357  plane waves:   1720
 k-point 24 :  0.25000.17860.0357  plane waves:   1720
 k-point 25 :  0.32140.17860.0357  plane waves:   1727
 k-point 26 :  0.39290.17860.0357  plane waves:   1733
 k-point 27 :  0.46430.17860.0357  plane waves:   1733
 k-point 28 :  -.46430.17860.0357  plane waves:   1727
 k-point 29 :  -.39290.17860.0357  plane waves:   1720
 k-point 30 :  -.32140.17860.0357  plane waves:   1719
 k-point 31 :  -.10710.17860.0357  plane waves:   1729
 k-point 32 :  -.03570.17860.0357  plane waves:   1729
 k-point 33 :  0.03570.25000.0357  plane waves:   1731
 k-point 34 :  0.10710.25000.0357  plane waves:   1721
 k-point 35 :  0.17860.25000.0357  plane waves:   1720
 k-point 36 :  0.25000.25000.0357  plane waves:   1727
 k-point 37 :  0.32140.25000.0357  plane waves:   1728
 k-point 38 :  0.39290.25000.0357  plane waves:   1733
 k-point 39 :  0.46430.25000.0357  plane waves:   1729
 k-point 40 :  -.46430.25000.0357  plane waves:   1727
 k-point 41 :  -.17860.25000.0357  plane waves:   1723
 k-point 42 :  -.10710.25000.0357  plane waves:   1722
 k-point 43 :  -.03570.25000.0357  plane waves:   1723
 k-point 44 :  0.03570.32140.0357  plane waves:   1721
 k-point 45 :  0.10710.32140.0357  plane waves:   1730
 k-point 46 :  0.17860.32140.0357  plane waves:   1727
 k-point 47 :  0.25000.32140.0357  plane waves:   1728
 k-point 48 :  0.32140.32140.0357  plane waves:   1727
 k-point 49 :  0.39290.32140.0357  plane waves:   1725
 k-point 50 :  -.25000.32140.0357  plane waves:   1727
 k-point 51 :  -.17860.32140.0357  plane waves:   1728
 k-point 52 :  -.10710.32140.0357  plane waves:   1727
 k-point 53 :  -.03570.32140.0357  plane waves:   1728
 k-point 54 :  0.03570.39290.0357  plane waves:   1731
 k-point 55 :  0.10710.39290.0357  plane waves:   1727
 k-point 56 :  0.17860.39290.0357  plane waves:   1733
 k-point 57 :  0.25000.39290.0357  plane waves:   1732
 k-point 58 :  -.32140.39290.0357  plane waves:   1727
 k-point 59 :  -.25000.39290.0357  plane waves:   1722
 k-point 60 :  -.17860.39290.0357  plane waves:   1724
 k-point 61 :  -.10710.39290.0357  plane waves:   1722
 k-point 62 :  -.03570.39290.0357  plane waves:   1727
 k-point 63 :  0.03570.46430.0357  plane waves:   1735
 k-point 64 :  0.10710.46430.0357  plane waves:   1727
 k-point 65 :  -.39290.46430.0357  plane waves:   1731
 k-point 66 :  -.32140.46430.0357  plane waves:   1725
 k-point 67 :  -.25000.46430.0357  plane waves:   1721
 k-point 68 :  -.17860.46430.0357  plane waves:   1723
 k-point 69 :  -.10710.46430.0357  plane waves:   1725
 k-point 70 :  -.03570.46430.0357  plane waves:   1731
 k-point 71 :  -.4643-.46430.0357  plane waves:   1732
 k-point 72 :  -.3929-.46430.0357  plane waves:   1729
 k-point 73 :  -.3214-.46430.0357  plane waves:   1727
 k-point 74 :  -.2500-.46430.0357  plane waves:   1724
 k-point 75 :  -.1786-.46430.0357  plane waves:   1727
 k-point 76 :  -.1071-.46430.0357  plane waves:   1728
 k-point 77 :  -.0357-.46430.0357  plane waves:   1732
 k-point 78 :  0.4643-.39290.0357  plane waves:   1731
 k-point 79 :  -.4643-.39290.0357  plane waves:   1729
 k-point 80 :  -.3929-.39290.0357  plane waves:   1733
 k-point 81 :  -.3214-.39290.0357  plane waves:   1725
 k-point 82 :  -.2500-.39290.0357  plane waves:   1725
 k-point 83 :  -.1786-.39290.0357  plane waves:   1733
 k-point 84 :  0.3929-.32140.0357  plane waves:   1727
 k-point 85 :  0.4643-.32140.0357  plane waves:   1725
 k-point 86 :  -.4643-.32140.0357  plane waves:   1727
 k-point 87 :  -.3929-.32140.0357  plane waves:   1725
 k-point 88 :  -.3214-.32140.0357  plane waves:   1722
 k-point 89 :  0.3214-.25000.0357  plane waves:   1727
 k-point 90 :  0.3929-.25000.0357  plane waves:   1722
 k-point 91 :  0.4643-.25000.0357  plane waves:   1723
 k-point 92 :  -.4643-.25000.0357  plane waves:   1724
 k-point 93 :  0.2500-.17860.0357  plane waves:   1723
 k-point 94 :  0.3214-.17860.0357  plane waves:   1730
 k-point 95 :  0.3929-.17860.0357  plane waves:   1724
 k-point 96 :  0.1786-.10710.0357  plane waves:   1729
 k-point 97 :  0.2500-.10710.0357  plane waves:   1722
 k-point 98 :  0.1071-.03570.0357  plane waves:   1730
 k-point 99 :  0.10710.10710.1071  plane waves:   1733
 k-point ** :  0.17860.10710.1071  plane waves:   1724
 k-point ** :  0.25000.10710.1071  plane waves:   1727
 k-point ** :  0.32140.10710.1071  plane waves:   1727
 k-point ** :  0.39290.10710.1071  plane waves:   1726
 k-point ** :  0.46430.10710.1071  plane waves:   1729
 k-point ** :  0.03570.17860.1071  plane waves:   1725
 k-point ** :  0.10710.17860.1071  plane waves:   1724
 k-point ** :  0.17860.17860.1071  plane waves:   1726
 k-point ** :  0.25000.17860.1071  plane waves:   1720
 k-point ** :  0.32140.17860.1071  plane waves:   1728
 k-point ** :  0.39290.17860.1071  plane waves:   1729
 k-point ** :  0.46430.17860.1071  plane waves:   1733
 k-point ** :  -.46430.17860.1071  plane waves:   1729
 k-point ** :  -.39290.17860.1071  plane waves:   1728
 k-point ** :  -.32140.17860.1071  plane waves:   1720
 k-point ** :  -.25000.17860.1071  plane waves:   1726
 k-point ** :  0.03570.25000.1071  plane waves:   1726
 k-point ** :  0.10710.25000.1071  plane waves:   1724
 k-point ** :  0.17860.25000.1071  plane waves:   1720
 k-point ** :  0.25000.25000.1071  plane waves:   1728
 k-point ** :  0.32140.25000.1071  plane waves:   1731
 k-point ** :  0.39290.25000.1071  plane waves:   1732
 k-point ** :  0.46430.25000.1071  plane waves:   1732
 k-point ** :  -.46430.25000.1071  plane waves:   1731
 k-point ** :  -.39290.25000.1071  plane waves:   1726
 k-point ** :  -.03570.25000.1071  plane waves:   1722
 k-point ** :  0.03570.32140.1071  plane waves:   1721
 k-point ** :  0.10710.32140.1071  plane waves:   1727
 k-point ** :  0.17860.32140.1071  plane waves:   1729
 k-point ** :  0.25000.32140.1071  plane waves:   1731
 k-point ** :  0.32140.32140.1071  plane waves:   1734
 k-point ** :  0.39290.32140.1071  plane waves:   1731
 k-point ** :  0.46430.32140.1071  plane waves:   1734
 k-point ** :  -.10710.32140.1071  plane waves:   1721
 k-point ** :  -.03570.32140.1071  plane waves:   1725
 k-point ** :  0.03570.39290.1071  plane waves:   1730
 k-point ** :  0.10710.39290.1071  plane waves:   1726
 k-point ** :  0.17860.39290.1071  plane waves:   1729
 k-point ** :  0.25000.39290.1071  plane waves:   1732
 k-point ** :  0.32140.39290.1071  plane waves:   1731
 k-point ** :  -.17860.39290.1071  plane waves:   1724
 k-point ** :  -.10710.39290.1071  plane waves:   1724
 k-point ** :  -.03570.39290.1071  plane waves:   1722
 k-point ** :  0.03570.46430.1071  plane waves:   1727
 k-point ** :  0.10710.46430.1071  plane waves:   1729
 k-point ** :  0.17860.46430.1071  plane waves:   1733
 k-point ** :  -.25000.46430.1071  plane waves:   1727
 k-point ** :  -.17860.46430.1071  plane waves:   1728
 k-point ** :  -.10710.46430.1071  plane waves:   1723
 k-point ** :  -.03570.46430.1071  plane waves:   1725
 k-point ** :  0.0357-.46430.1071  plane waves:   1727
 k-point ** :  -.3214-.46430.1071  plane waves:   1726
 k-point ** :  -.2500-.46430.1071  plane waves:   1727
 k-point ** :  -.1786-.46430.1071  plane waves:   1727
 k-point ** :  -.1071-.46430.1071  plane waves:   1726
 k-point ** :  -.0357-.46430.1071  plane waves:   1727
 k-point ** :  -.3929-.39290.1071  plane waves:   1734
 k-point ** :  -.3214-.39290.1071  plane waves:   1723
 k-point ** :  -.2500-.39290.1071  plane waves:   1722
 k-point ** :  -.1786-.39290.1071  plane waves:   1723
 k-point ** :  -.1071-.39290.1071  plane waves:   1734
 k-point ** :  -.4643-.32140.1071  plane waves:   1726
 k-point ** :  -.3929-.32140.1071  plane waves:   1723
 k-point ** :  -.3214-.32140.1071  plane waves:   1725
 k-point ** :  -.2500-.32140.1071  plane waves:   1725
 k-point ** :  0.4643-.25000.1071  plane waves:   1731
 k-point ** :  -.4643-.25000.1071  plane waves:   1727
 k-point ** :  -.3929-.25000.1071  plane waves:   1722
 k-point ** :  0.3929-.17860.1071  plane waves:   1724
 k-point ** :  0.4643-.17860.1071  plane waves:   1728
 k-point ** :  0.3214-.10710.1071  plane waves:   1721
 k-point ** :  0.17860.17860.1786  plane waves:   1741
 k-point ** :  0.25000.17860.1786  plane waves:   1730
 k-point ** :  0.32140.17860.1786  plane waves:   1731
 k-point ** :  0.39290.17860.1786  plane waves:   1727
 k-point ** :  0.46430.17860.1786  plane waves:   1725
 k-point ** :  0.10710.25000.1786  plane waves:   1726
 k-point ** :  0.17860.25000.1786  plane waves:   1730
 k-point ** :  0.25000.25000.1786  plane waves:   1732
 k-point ** :  0.32140.25000.1786  plane waves:   1729
 k-point ** :  0.39290.25000.1786  plane waves:   1738
 k-point ** :  0.46430.25000.1786  plane waves:   1742
[...]
      9       0.9880      2.00000
     10       1.0504      2.00000
     11       1.0505      2.00000
     12       4.0098      2.00000
     13       4.3803      2.00000
     14       4.3828      2.00000
     15       6.8413      0.00000
     16       8.9178      0.00000
     17       8.9946      0.00000
     18       8.9954      0.00000
     19      11.2621      0.00000
     20      11.4450      0.00000
     21      11.4481      0.00000
     22      13.8877      0.00000
     23      14.2059      0.00000
     24      14.2793      0.00000
     25      14.2825      0.00000
     26      14.7995      0.00000
     27      15.7990      0.00000
     28      15.7991      0.00000
     29      16.6954      0.00000
     30      17.1473      0.00000
     31      17.1485      0.00000
     32      17.6742      0.00000
     33      17.8231      0.00000
     34      17.8240      0.00000
     35      18.8022      0.00000
     36      18.8035      0.00000
     37      18.8418      0.00000
     38      19.1590      0.00000
     39      19.1601      0.00000
     40      20.4123      0.00000
     41      20.4140      0.00000
     42      20.4292      0.00000
     43      22.7900      0.00000
     44      26.8251      0.00000
     45      26.8288      0.00000
     46      27.1589      0.00000
     47      27.6131      0.00000
     48      27.6155      0.00000

 k-point 276 :       0.2500   -0.4643    0.3929
  band No.  band energies     occupation 
      1      -6.3680      2.00000
      2      -6.2055      2.00000
      3      -3.8457      2.00000
      4       0.3001      2.00000
      5       0.3342      2.00000
      6       0.4929      2.00000
      7       0.9356      2.00000
      8       0.9412      2.00000
      9       1.1559      2.00000
     10       1.2004      2.00000
     11       1.3556      2.00000
     12       3.1732      2.00000
     13       4.3848      2.00000
     14       4.6517      2.00000
     15       7.6658      0.00000
     16       7.7299      0.00000
     17       8.3496      0.00000
     18       8.4588      0.00000
     19      11.1043      0.00000
     20      11.8108      0.00000
     21      11.8877      0.00000
     22      12.7437      0.00000
     23      13.2632      0.00000
     24      14.5430      0.00000
     25      14.9921      0.00000
     26      15.3512      0.00000
     27      15.6503      0.00000
     28      15.8389      0.00000
     29      16.0401      0.00000
     30      16.2362      0.00000
     31      16.8103      0.00000
     32      17.2698      0.00000
     33      17.5699      0.00000
     34      17.6103      0.00000
     35      19.4806      0.00000
     36      19.9975      0.00000
     37      20.1837      0.00000
     38      20.8133      0.00000
     39      20.8487      0.00000
     40      21.4217      0.00000
     41      21.8653      0.00000
     42      22.2733      0.00000
     43      24.2534      0.00000
     44      24.4610      0.00000
     45      24.6918      0.00000
     46      25.0977      0.00000
     47      25.9757      0.00000
     48      26.6357      0.00000

 k-point 277 :       0.3214   -0.4643    0.3929
  band No.  band energies     occupation 
      1      -6.3452      2.00000
      2      -6.2476      2.00000
      3      -3.6530      2.00000
      4       0.1675      2.00000
      5       0.2645      2.00000
      6       0.3665      2.00000
      7       0.9516      2.00000
      8       0.9575      2.00000
      9       1.0449      2.00000
     10       1.1194      2.00000
     11       1.1390      2.00000
     12       3.5955      2.00000
     13       4.2816      2.00000
     14       4.5669      2.00000
     15       7.3085      0.00000
     16       8.3389      0.00000
     17       8.5082      0.00000
     18       8.9467      0.00000
     19      11.1261      0.00000
     20      11.5342      0.00000
     21      11.7410      0.00000
     22      13.4213      0.00000
     23      13.8611      0.00000
     24      14.3973      0.00000
     25      14.5551      0.00000
     26      14.8343      0.00000
     27      15.8351      0.00000
     28      15.9934      0.00000
     29      16.2158      0.00000
     30      16.7323      0.00000
     31      16.8226      0.00000
     32      17.2471      0.00000
     33      17.6433      0.00000
     34      17.8862      0.00000
     35      18.8989      0.00000
     36      19.3439      0.00000
     37      19.6324      0.00000
     38      19.6793      0.00000
     39      20.2030      0.00000
     40      21.0191      0.00000
     41      21.0581      0.00000
     42      21.3713      0.00000
     43      23.5324      0.00000
     44      25.5035      0.00000
     45      25.8142      0.00000
     46      26.1451      0.00000
     47      26.6086      0.00000
     48      26.9447      0.00000

 k-point 278 :       0.1786   -0.3929    0.3929
  band No.  band energies     occupation 
      1      -6.2675      2.00000
      2      -6.2675      2.00000
      3      -4.0769      2.00000
      4       0.4097      2.00000
      5       0.4097      2.00000
      6       0.6063      2.00000
      7       0.9177      2.00000
      8       0.9177      2.00000
      9       1.3770      2.00000
     10       1.4304      2.00000
     11       1.4304      2.00000
     12       2.8166      2.00000
     13       4.6778      2.00000
     14       4.6779      2.00000
     15       7.4030      0.00000
     16       7.7762      0.00000
     17       7.7762      0.00000
     18       8.0311      0.00000
     19      11.3934      0.00000
     20      11.8763      0.00000
     21      11.8763      0.00000
     22      12.5336      0.00000
     23      12.5336      0.00000
     24      14.5215      0.00000
     25      15.2664      0.00000
     26      15.5338      0.00000
     27      15.7757      0.00000
     28      15.8457      0.00000
     29      15.8457      0.00000
     30      16.4740      0.00000
     31      16.8802      0.00000
     32      16.8802      0.00000
     33      17.5378      0.00000
     34      17.5378      0.00000
     35      20.3524      0.00000
     36      20.3524      0.00000
     37      21.4242      0.00000
     38      21.5258      0.00000
     39      21.7250      0.00000
     40      21.7250      0.00000
     41      22.7212      0.00000
     42      22.7212      0.00000
     43      23.6145      0.00000
     44      23.6145      0.00000
     45      24.1187      0.00000
     46      24.9864      0.00000
     47      25.6757      0.00000
     48      25.6757      0.00000

 k-point 279 :       0.4643    0.4643    0.4643
  band No.  band energies     occupation 
      1      -6.3189      2.00000
      2      -6.2844      2.00000
      3      -3.4259      2.00000
      4       0.0727      2.00000
      5       0.0730      2.00000
      6       0.1335      2.00000
      7       0.9538      2.00000
      8       0.9627      2.00000
      9       0.9627      2.00000
     10       1.0376      2.00000
     11       1.0444      2.00000
     12       4.2945      2.00000
     13       4.3150      2.00000
     14       4.3170      2.00000
     15       6.6418      0.00000
     16       8.9796      0.00000
     17       9.1757      0.00000
     18       9.1763      0.00000
     19      11.2700      0.00000
     20      11.4144      0.00000
     21      11.4167      0.00000
     22      13.6521      0.00000
     23      14.0301      0.00000
     24      14.5721      0.00000
     25      14.6719      0.00000
     26      14.6742      0.00000
     27      15.6733      0.00000
     28      15.8235      0.00000
     29      17.0470      0.00000
     30      17.0476      0.00000
     31      17.2071      0.00000
     32      18.1313      0.00000
     33      18.2615      0.00000
     34      18.2618      0.00000
     35      18.3625      0.00000
     36      18.3864      0.00000
     37      18.3900      0.00000
     38      18.8074      0.00000
     39      19.0170      0.00000
     40      19.8459      0.00000
     41      20.1795      0.00000
     42      20.1799      0.00000
     43      22.5246      0.00000
     44      27.5606      0.00000
     45      27.5607      0.00000
     46      27.5659      0.00000
     47      27.8268      0.00000
     48      28.1057      0.00000

 k-point 280 :       0.3929   -0.4643    0.4643
  band No.  band energies     occupation 
      1      -6.3007      2.00000
      2      -6.3007      2.00000
      3      -3.4887      2.00000
      4       0.1289      2.00000
      5       0.1289      2.00000
      6       0.1760      2.00000
      7       0.9586      2.00000
      8       0.9586      2.00000
      9       0.9880      2.00000
     10       1.0504      2.00000
     11       1.0504      2.00000
     12       4.0121      2.00000
     13       4.3802      2.00000
     14       4.3802      2.00000
     15       6.8413      0.00000
     16       8.9187      0.00000
     17       8.9946      0.00000
     18       8.9946      0.00000
     19      11.2645      0.00000
     20      11.4450      0.00000
     21      11.4450      0.00000
     22      13.8885      0.00000
     23      14.2058      0.00000
     24      14.2825      0.00000
     25      14.2825      0.00000
     26      14.7964      0.00000
     27      15.7990      0.00000
     28      15.7990      0.00000
     29      16.6946      0.00000
     30      17.1457      0.00000
     31      17.1457      0.00000
     32      17.6774      0.00000
     33      17.8233      0.00000
     34      17.8233      0.00000
     35      18.8017      0.00000
     36      18.8018      0.00000
     37      18.8428      0.00000
     38      19.1598      0.00000
     39      19.1598      0.00000
     40      20.4145      0.00000
     41      20.4145      0.00000
     42      20.4287      0.00000
     43      22.7917      0.00000
     44      26.8335      0.00000
     45      26.8335      0.00000
     46      27.1621      0.00000
     47      27.6125      0.00000
     48      27.6240      0.00000


--------------------------------------------------------------------------------------------------------


 soft charge-density along one line, spin component           1
         0         1         2         3         4         5         6         7         8         9
 total charge-density along one line
 
 pseudopotential strength for first ion, spin component:           1
-11.666   0.000   0.000   0.006   0.000  -0.186   0.000   0.000
  0.000 -11.670   0.000   0.000   0.006   0.000  -0.186   0.000
  0.000   0.000 -11.662   0.000   0.000   0.000   0.000  -0.187
  0.006   0.000   0.000 -11.670   0.000   0.000   0.000   0.000
  0.000   0.006   0.000   0.000 -11.666   0.000   0.000   0.000
 -0.186   0.000   0.000   0.000   0.000   0.428   0.000   0.000
  0.000  -0.186   0.000   0.000   0.000   0.000   0.428   0.000
  0.000   0.000  -0.187   0.000   0.000   0.000   0.000   0.429
  0.000   0.000   0.000  -0.186   0.000   0.000   0.000   0.000
  0.000   0.000   0.000   0.000  -0.186   0.000   0.000   0.000
  0.000   0.000   0.000   0.000   0.000   0.000   0.000   0.000
  0.000   0.000   0.000   0.000   0.000   0.000   0.000   0.000
  0.000   0.000   0.000   0.000   0.000   0.000   0.000   0.000
  0.000   0.000   0.000   0.000   0.000   0.000   0.000   0.000
  0.000   0.000   0.000   0.000   0.000   0.000   0.000   0.000
  0.000   0.000   0.000   0.000   0.000   0.000   0.000   0.000
  0.000   0.000   0.000   0.000   0.000   0.000   0.000   0.000
  0.000   0.000   0.000   0.000   0.000   0.000   0.000   0.000
 total augmentation occupancy for first ion, spin component:           1
  2.017   0.000   0.000  -0.001   0.003   0.068  -0.005   0.002   0.012  -0.003   0.029   0.005   0.000   0.000   0.000   0.000
  0.000   2.014  -0.002   0.002   0.003  -0.005   0.067   0.002   0.000   0.008   0.025   0.003   0.000   0.000   0.000   0.000
  0.000  -0.002   2.016   0.000   0.000   0.002   0.002   0.078   0.000   0.001   0.000   0.000   0.000   0.000   0.000   0.000
 -0.001   0.002   0.000   2.016   0.000   0.012   0.000   0.000   0.061  -0.005  -0.040  -0.001   0.000   0.000   0.000   0.000
  0.003   0.003   0.000   0.000   2.014  -0.003   0.008   0.001  -0.005   0.074  -0.013   0.000   0.000   0.000   0.000   0.000
  0.068  -0.005   0.002   0.012  -0.003   0.065   0.011  -0.003  -0.057  -0.003  -0.040   0.005   0.000   0.000   0.000   0.000
 -0.005   0.067   0.002   0.000   0.008   0.011   0.092  -0.001  -0.006  -0.051  -0.032   0.004   0.000   0.000   0.000   0.000
  0.002   0.002   0.078   0.000   0.001  -0.003  -0.001   0.022   0.001  -0.001   0.000   0.000   0.000   0.000   0.000   0.000
  0.012   0.000   0.000   0.061  -0.005  -0.057  -0.006   0.001   0.105   0.011   0.040  -0.011   0.000   0.000   0.000   0.000
 -0.003   0.008   0.001  -0.005   0.074  -0.003  -0.051  -0.001   0.011   0.056   0.012  -0.004   0.000   0.000   0.000   0.000
  0.029   0.025   0.000  -0.040  -0.013  -0.040  -0.032   0.000   0.040   0.012   0.739  -0.289   0.000   0.000   0.000   0.000
  0.005   0.003   0.000  -0.001   0.000   0.005   0.004   0.000  -0.011  -0.004  -0.289   0.153   0.000   0.000   0.000   0.000
  0.000   0.000   0.000   0.000   0.000   0.000   0.000   0.000   0.000   0.000   0.000   0.000   0.079   0.005   0.010  -0.005
  0.000   0.000   0.000   0.000   0.000   0.000   0.000   0.000   0.000   0.000   0.000   0.000   0.005   0.074  -0.012   0.000
  0.000   0.000   0.000   0.000   0.000   0.000   0.000   0.000   0.000   0.000   0.000   0.000   0.010  -0.012   0.068   0.000
  0.000   0.000   0.000   0.000   0.000   0.000   0.000   0.000   0.000   0.000   0.000   0.000  -0.005   0.000   0.000   0.000
  0.000   0.000   0.000   0.000   0.000   0.000   0.000   0.000   0.000   0.000   0.000   0.000   0.000  -0.004   0.001   0.000
  0.000   0.000   0.000   0.000   0.000   0.000   0.000   0.000   0.000   0.000   0.000   0.000   0.000   0.001  -0.004   0.000


------------------------ aborting loop because EDIFF is reached ----------------------------------------


 


 total charge     
 
# of ion     s       p       d       tot
----------------------------------------
  1        0.240   0.138   9.210   9.589
  2        1.412   1.734   0.037   3.183
  3        1.421   1.870   0.047   3.338
  4        1.422   1.893   0.047   3.362
------------------------------------------------
tot        4.495   5.635   9.342  19.472
 


--------------------------------------------------------------------------------------------------------


    CHARGE:  VPU time    0.32: CPU time    0.32
    FORLOC:  VPU time    0.00: CPU time    0.00
    FORNL :  VPU time    0.91: CPU time    0.91
    STRESS:  VPU time    2.43: CPU time    2.43
    FORCOR:  VPU time    0.04: CPU time    0.04
    FORHAR:  VPU time    0.01: CPU time    0.01
    MIXING:  VPU time    0.00: CPU time    0.00


--------------------------------------------------------------------------------------------------------



  FREE ENERGIE OF THE ION-ELECTRON SYSTEM (eV)
  ---------------------------------------------------
  free  energy   TOTEN  =       -10.724437 eV

  energy  without entropy=      -10.724437  energy(sigma->0) =      -10.724437
 

  FORCE on cell =-STRESS in cart. coord.  units (eV/reduce length):
  Direction    X        Y        Z        XY       YZ       ZX
  --------------------------------------------------------------------------------------
  Alpha Z     43.45     43.45     43.45
  Ewald     -487.06   -487.06   -487.14      0.00      0.00      0.00
  Hartree    132.37    132.37    132.35      0.00      0.00      0.00
  E(xc)     -128.94   -128.94   -128.94      0.00      0.00      0.00
  Local      -72.08    -72.08    -71.99      0.00      0.00      0.00
  n-local    257.75    257.53    257.65     -0.50     -0.77      1.20
  augment    -38.98    -38.98    -38.99      0.00      0.00      0.00
  Kinetic    295.40    291.79    293.61      1.22     -0.25      4.36
  -------------------------------------------------------------------------------------
  Total        0.00      0.00      0.00      0.00      0.00      0.00
  in kB        0.02      0.02      0.04      0.00      0.00      0.00
  external pressure =        0.03 kB  Pullay stress =        0.00 kB


 VOLUME and BASIS-vectors are now :
 -----------------------------------------------------------------------------
  energy-cutoff  :      349.78
  volume of cell :      116.42
      direct lattice vectors                 reciprocal lattice vectors
     0.000000000  0.000000000  5.326773463     0.000000000 -0.132705655  0.187730904
     4.350607890 -2.511824637 -1.775591154     0.114926468 -0.199058482  0.000000000
     4.350607890  2.511824637  1.775591154     0.114926468  0.199058482  0.000000000

  length of vectors
     5.326773463  5.328205698  5.328205698     0.229899290  0.229852937  0.229852937


 FORCES acting on ions
    electron-ion (+dipol)            ewald-force                    non-local-force                 convergence-correction
 -----------------------------------------------------------------------------------------------
   -.799E-07 0.179E-05 -.170E+00   -.409E-13 0.454E-11 0.165E+00   0.000E+00 0.108E-18 0.599E-02   0.831E-08 0.501E-08 -.102E-03
   0.121E+00 -.697E-01 0.503E-01   -.132E+00 0.761E-01 -.551E-01   0.128E-01 -.736E-02 0.416E-02   0.109E-04 -.629E-05 0.788E-05
   0.700E-07 0.139E+00 0.503E-01   0.119E-14 -.152E+00 -.551E-01   0.000E+00 0.147E-01 0.416E-02   -.593E-08 0.126E-04 0.788E-05
   -.121E+00 -.697E-01 0.503E-01   0.132E+00 0.761E-01 -.551E-01   -.128E-01 -.736E-02 0.416E-02   -.109E-04 -.629E-05 0.791E-05
 -----------------------------------------------------------------------------------------------
   -.560E-06 0.268E-05 -.192E-01   0.167E-15 0.971E-16 -.347E-15   0.000E+00 0.347E-17 0.185E-01   0.139E-08 0.103E-08 -.779E-04
 
 
 POSITION                                       TOTAL-FORCE (eV/Angst)
 -----------------------------------------------------------------------------------
      0.00000      0.00000      0.02917         0.000000      0.000000      0.001113
      2.17438     -1.25538      1.80830         0.001621     -0.000936     -0.000371
      4.35061     -0.00107      0.03271         0.000000      0.001871     -0.000371
      2.17623      1.25645      3.58390        -0.001621     -0.000936     -0.000371
 -----------------------------------------------------------------------------------
    total drift:                               -0.000001      0.000003     -0.000783


--------------------------------------------------------------------------------------------------------


  FORCES: max atom, RMS     0.001908    0.001743
  FORCE total and by dimension    0.003487    0.001871

 mean value of Nose-termostat <S>:     1.000 mean value of <T> :     0.000
 mean temperature <T/S>/<1/S>  :     0.000

     LOOP+:  VPU time  358.31: CPU time  358.36
 


 total charge     
 
# of ion     s       p       d       tot
----------------------------------------
  1        0.240   0.138   9.210   9.589
  2        1.412   1.734   0.037   3.183
  3        1.421   1.870   0.047   3.338
  4        1.422   1.893   0.047   3.362
------------------------------------------------
tot        4.495   5.635   9.342  19.472
 
 BZINTS: Fermi energy:  5.578235; 29.000000 electrons
         Band energy:  13.391140;  BLOECHL correction: -0.045165
  
  
 General timing and accounting informations for this job:
 ========================================================
  
                  Total CPU time used (sec):      387.224
                            User time (sec):      384.172
                          System time (sec):        3.052
                         Elapsed time (sec):      388.349
  
                   Maximum memory used (kb):           0.
                   Average memory used (kb):           0.
  
                          Minor page faults:        24488
                          Major page faults:            0
                 Voluntary context switches:         2446
