 vasp.4.6.35 3Apr08 complex 
 executed on             LinuxIFC date 2014.05.18  14:56:10
 serial version


--------------------------------------------------------------------------------------------------------


 INCAR:
 POTCAR:   PAW_PBE Ag 06Sep2000                   
 POTCAR:   PAW_PBE F 08Apr2002                    
 POTCAR:   PAW_PBE Sb 06Sep2000                   
 POTCAR:   PAW_PBE Ag 06Sep2000                   
   VRHFIN =Ag : s1 d10                                                          
   LEXCH  = PE                                                                  
   EATOM  =  1037.4134 eV,   76.2477 Ry                                         
                                                                                
   TITEL  = PAW_PBE Ag 06Sep2000                                                
   LULTRA =        F    use ultrasoft PP ?                                      
   IUNSCR =        1    unscreen: 0-lin 1-nonlin 2-no                           
   RPACOR =    2.000    partial core radius                                     
   POMASS =  107.868; ZVAL   =   11.000    mass and valenz                      
   RCORE  =    2.400    outmost cutoff radius                                   
   RWIGS  =    2.840; RWIGS  =    1.503    wigner-seitz radius (au A)           
   ENMAX  =  249.846; ENMIN  =  187.385 eV                                      
   RCLOC  =    1.962    cutoff for local pot                                    
   LCOR   =        T    correct aug charges                                     
   LPAW   =        T    paw PP                                                  
   EAUG   =  412.496                                                            
   DEXC   =    -.047                                                            
   RMAX   =    2.917    core radius for proj-oper                               
   RAUG   =    1.300    factor for augmentation sphere                          
   RDEP   =    2.416    radius for radial grids                                 
   QCUT   =   -4.285; QGAM   =    8.570    optimization parameters              
                                                                                
   Description                                                                  
     l     E      TYP  RCUT    TYP  RCUT                                        
     2   .000     23  2.400                                                     
     2   .000     23  2.400                                                     
     0   .000     23  2.400                                                     
     0   .000     23  2.400                                                     
     1  -.200     23  2.400                                                     
     1  1.500     23  2.400                                                     
     3   .000      7   .000                                                     
  local pseudopotential read in
  partial core-charges read in
  atomic valenz-charges read in
  non local Contribution for L=           2  read in
    real space projection operators read in
  non local Contribution for L=           2  read in
    real space projection operators read in
  non local Contribution for L=           0  read in
    real space projection operators read in
  non local Contribution for L=           0  read in
    real space projection operators read in
  non local Contribution for L=           1  read in
    real space projection operators read in
  non local Contribution for L=           1  read in
    real space projection operators read in
    PAW grid and wavefunctions read in
 
   number of l-projection  operators is LMAX  =           6
   number of lm-projection operators is LMMAX =          18
 
 POTCAR:   PAW_PBE F 08Apr2002                    
   VRHFIN =F: s2p5                                                              
   LEXCH  = PE                                                                  
   EATOM  =   659.4942 eV,   48.4715 Ry                                         
                                                                                
   TITEL  = PAW_PBE F 08Apr2002                                                 
   LULTRA =        F    use ultrasoft PP ?                                      
   IUNSCR =        0    unscreen: 0-lin 1-nonlin 2-no                           
   RPACOR =     .000    partial core radius                                     
   POMASS =   18.998; ZVAL   =    7.000    mass and valenz                      
   RCORE  =    1.520    outmost cutoff radius                                   
   RWIGS  =    1.500; RWIGS  =     .794    wigner-seitz radius (au A)           
   ENMAX  =  400.000; ENMIN  =  300.000 eV                                      
   ICORE  =        2    local potential                                         
   LCOR   =        T    correct aug charges                                     
   LPAW   =        T    paw PP                                                  
   EAUG   =  613.614                                                            
   DEXC   =     .000                                                            
   RMAX   =    2.254    core radius for proj-oper                               
   RAUG   =    1.300    factor for augmentation sphere                          
   RDEP   =    1.539    radius for radial grids                                 
   QCUT   =   -5.545; QGAM   =   11.091    optimization parameters              
                                                                                
   Description                                                                  
     l     E      TYP  RCUT    TYP  RCUT                                        
     0   .000     23  1.200                                                     
     0  -.700     23  1.200                                                     
     1   .000     23  1.520                                                     
     1   .100     23  1.520                                                     
     2   .000      7  1.500                                                     
  local pseudopotential read in
  atomic valenz-charges read in
  non local Contribution for L=           0  read in
    real space projection operators read in
  non local Contribution for L=           0  read in
    real space projection operators read in
  non local Contribution for L=           1  read in
    real space projection operators read in
  non local Contribution for L=           1  read in
    real space projection operators read in
    PAW grid and wavefunctions read in
 
   number of l-projection  operators is LMAX  =           4
   number of lm-projection operators is LMMAX =           8
 
 POTCAR:   PAW_PBE Sb 06Sep2000                   
   VRHFIN =Sb: s2p3                                                             
   LEXCH  = PE                                                                  
   EATOM  =   149.8037 eV,   11.0103 Ry                                         
                                                                                
   TITEL  = PAW_PBE Sb 06Sep2000                                                
   LULTRA =        F    use ultrasoft PP ?                                      
   IUNSCR =        1    unscreen: 0-lin 1-nonlin 2-no                           
   RPACOR =    2.200    partial core radius                                     
   POMASS =  121.750; ZVAL   =    5.000    mass and valenz                      
   RCORE  =    2.300    outmost cutoff radius                                   
   RWIGS  =    2.980; RWIGS  =    1.577    wigner-seitz radius (au A)           
   ENMAX  =  172.037; ENMIN  =  129.028 eV                                      
   ICORE  =        3    local potential                                         
   LCOR   =        T    correct aug charges                                     
   LPAW   =        T    paw PP                                                  
   EAUG   =  380.513                                                            
   DEXC   =    -.415                                                            
   RMAX   =    3.515    core radius for proj-oper                               
   RAUG   =    1.300    factor for augmentation sphere                          
   RDEP   =    2.360    radius for radial grids                                 
   QCUT   =   -3.556; QGAM   =    7.112    optimization parameters              
                                                                                
   Description                                                                  
     l     E      TYP  RCUT    TYP  RCUT                                        
     0   .000     23  2.300                                                     
     0  1.000     23  2.300                                                     
     1   .000     23  2.300                                                     
     1   .000     23  2.300                                                     
     2   .000     23  2.300                                                     
     3  -.100     23  2.300                                                     
  local pseudopotential read in
  partial core-charges read in
  atomic valenz-charges read in
  non local Contribution for L=           0  read in
    real space projection operators read in
  non local Contribution for L=           0  read in
    real space projection operators read in
  non local Contribution for L=           1  read in
    real space projection operators read in
  non local Contribution for L=           1  read in
    real space projection operators read in
  non local Contribution for L=           2  read in
    real space projection operators read in
    PAW grid and wavefunctions read in
 
   number of l-projection  operators is LMAX  =           5
   number of lm-projection operators is LMMAX =          13
 

 ----------------------------------------------------------------------------- 
|                                                                             |
|  ADVICE TO THIS USER RUNNING 'VASP/VAMP'   (HEAR YOUR MASTER'S VOICE ...):  |
|                                                                             |
|      You have a (more or less) 'large supercell' and for larger cells       |
|      it might be more efficient to use real space projection operators      |
|      So try LREAL= Auto  in the INCAR   file.                               |
|      Mind: If you want to do an extremely accurate calculations keep the    |
|      reciprocal projection scheme          (i.e. LREAL=.FALSE.)             |
|                                                                             |
 ----------------------------------------------------------------------------- 

 PAW_PBE Ag 06Sep2000                   :
 energy of atom  1       EATOM=-1037.4134
 kinetic energy error for atom=    0.0032 (will be added to EATOM!!)
 PAW_PBE F 08Apr2002                    :
 energy of atom  2       EATOM= -659.4942
 kinetic energy error for atom=    0.0290 (will be added to EATOM!!)
 PAW_PBE Sb 06Sep2000                   :
 energy of atom  3       EATOM= -149.8037
 kinetic energy error for atom=    0.0004 (will be added to EATOM!!)
 
 EXHCAR: internal setup
 exchange correlation table for  LEXCH =        8
   RHO(1)=    0.500       N(1)  =     2000
   RHO(2)=  100.500       N(2)  =     4000
 
 POSCAR: Ag1F6Sb1   [BCC,BCC,cI64] (STD_PRIM doi:
  positions in direct lattice
  No initial velocities read in
 


--------------------------------------------------------------------------------------------------------


 ion  position               nearest neighbor table
   1  0.000  0.000  0.500-  11 2.56  23 2.56  15 2.56  27 2.56   7 2.56  19 2.56
   2  0.500  0.000  0.000-   8 2.56   9 2.56  14 2.56  20 2.56  21 2.56  26 2.56
   3  0.500  0.500  0.500-  16 2.56  28 2.56  17 2.56   5 2.56  22 2.56  10 2.56
   4  0.000  0.500  0.000-   6 2.56  18 2.56  12 2.56  24 2.56  13 2.56  25 2.56
   5  0.175  0.205  0.256-  29 1.92   3 2.56
   6  0.948  0.418  0.244-  30 1.92   4 2.56
   7  0.325  0.082  0.530-  31 1.92   1 2.56
   8  0.552  0.295  0.970-  32 1.92   2 2.56
   9  0.795  0.970  0.052-  29 1.92   2 2.56
  10  0.582  0.530  0.825-  32 1.92   3 2.56
  11  0.918  0.244  0.448-  30 1.92   1 2.56
  12  0.705  0.256  0.675-  31 1.92   4 2.56
  13  0.030  0.825  0.082-  29 1.92   4 2.56
  14  0.470  0.052  0.295-  31 1.92   2 2.56
  15  0.756  0.675  0.205-  32 1.92   1 2.56
  16  0.744  0.448  0.418-  30 1.92   3 2.56
  17  0.825  0.795  0.744-  29 1.92   3 2.56
  18  0.052  0.582  0.756-  30 1.92   4 2.56
  19  0.675  0.918  0.470-  31 1.92   1 2.56
  20  0.448  0.705  0.030-  32 1.92   2 2.56
  21  0.205  0.030  0.948-  29 1.92   2 2.56
  22  0.418  0.470  0.175-  32 1.92   3 2.56
  23  0.082  0.756  0.552-  30 1.92   1 2.56
  24  0.295  0.744  0.325-  31 1.92   4 2.56
  25  0.970  0.175  0.918-  29 1.92   4 2.56
  26  0.530  0.948  0.705-  31 1.92   2 2.56
  27  0.244  0.325  0.795-  32 1.92   1 2.56
  28  0.256  0.552  0.582-  30 1.92   3 2.56
  29  0.000  0.000  0.000-  13 1.92  25 1.92   5 1.92  17 1.92  21 1.92   9 1.92
  30  0.000  0.500  0.500-  16 1.92  28 1.92   6 1.92  18 1.92  23 1.92  11 1.92
  31  0.500  0.000  0.500-   7 1.92  19 1.92  14 1.92  12 1.92  24 1.92  26 1.92
  32  0.500  0.500  0.000-  10 1.92  22 1.92  15 1.92  20 1.92   8 1.92  27 1.92
 
  LATTYP: Found a body centered cubic cell.
 ALAT       =     9.9796328512
  
  Lattice vectors:
  
 A1 = (  -4.9898164256,   4.9898164256,   4.9898164256)
 A2 = (   4.9898164256,  -4.9898164256,   4.9898164256)
 A3 = (   4.9898164256,   4.9898164256,  -4.9898164256)
 Subroutine PRICEL returns:
 Original cell was already a primitive cell.
 

Analysis of symmetry for initial positions (statically):

 Routine SETGRP: Setting up the symmetry group for a 
 body centered cubic supercell.


 Subroutine GETGRP returns: Found 24 space group operations
 (whereof  6 operations were pure point group operations)
 out of a pool of 48 trial point group operations.


The static configuration has the point symmetry S_6 .
 The point group associated with its full space group is T_h .

Analysis of symmetry for dynamics (positions and initial velocities):

 Subroutine DYNSYM returns: Found 24 space group operations
 (whereof  6 operations were pure point group operations)
 out of a pool of 24 trial space group operations
 (whereof  6 operations were pure point group operations)
 and found also     1 'primitive' translations


The dynamic configuration has the point symmetry S_6 .
 The point group associated with its full space group is T_h .
 
 
 KPOINTS: KPOINTS File, automatically generated by

Automatic generation of k-mesh.
 
 Subroutine IBZKPT returns following result:
 ===========================================
 
 Found     24 irreducible k-points:
 
 Following reciprocal coordinates:
            Coordinates               Weight
  0.000000  0.000000  0.000000      1.000000
  0.142857  0.000000  0.000000     12.000000
  0.285714  0.000000  0.000000     12.000000
  0.428571  0.000000  0.000000     12.000000
  0.142857  0.142857  0.000000     24.000000
  0.285714  0.142857  0.000000     24.000000
  0.428571  0.142857  0.000000     24.000000
 -0.428571  0.142857  0.000000     24.000000
  0.285714  0.285714  0.000000     24.000000
  0.142857  0.142857  0.142857      8.000000
  0.285714  0.142857  0.142857     24.000000
 -0.142857  0.142857  0.142857      6.000000
  0.285714  0.285714  0.142857      8.000000
 -0.285714  0.285714  0.142857     12.000000
 -0.142857  0.285714  0.142857     12.000000
 -0.428571  0.428571  0.142857     12.000000
 -0.285714  0.428571  0.142857     24.000000
 -0.142857  0.428571  0.142857     12.000000
 -0.428571 -0.428571  0.142857     24.000000
 -0.285714  0.285714  0.285714      6.000000
 -0.428571  0.428571  0.285714     12.000000
 -0.285714  0.428571  0.285714     12.000000
 -0.428571 -0.428571  0.285714      8.000000
 -0.428571  0.428571  0.428571      6.000000
 
 Following cartesian coordinates:
            Coordinates               Weight
  0.000000  0.000000  0.000000      1.000000
  0.000000  0.014315  0.014315     12.000000
  0.000000  0.028630  0.028630     12.000000
  0.000000  0.042945  0.042945     12.000000
  0.014315  0.014315  0.028630     24.000000
  0.014315  0.028630  0.042945     24.000000
  0.014315  0.042945  0.057259     24.000000
  0.014315 -0.042945 -0.028630     24.000000
  0.028630  0.028630  0.057259     24.000000
  0.028630  0.028630  0.028630      8.000000
  0.028630  0.042945  0.042945     24.000000
  0.028630  0.000000  0.000000      6.000000
  0.042945  0.042945  0.057259      8.000000
  0.042945 -0.014315  0.000000     12.000000
  0.042945  0.000000  0.014315     12.000000
  0.057259 -0.028630  0.000000     12.000000
  0.057259 -0.014315  0.014315     24.000000
  0.057259  0.000000  0.028630     12.000000
 -0.028630 -0.028630 -0.085889     24.000000
  0.057259  0.000000  0.000000      6.000000
  0.071574 -0.014315  0.000000     12.000000
  0.071574  0.000000  0.014315     12.000000
 -0.014315 -0.014315 -0.085889      8.000000
  0.085889  0.000000  0.000000      6.000000
 
 TETIRR: Found    606 inequivalent tetrahedra from     2058


--------------------------------------------------------------------------------------------------------




 Dimension of arrays:
   k-Points           NKPTS =     24   number of bands    NBANDS=    209
   number of dos      NEDOS =   5000   number of ions     NIONS =     32
   non local maximal  LDIM  =      6   non local SUM 2l+1 LMDIM =     18
   total plane-waves  NPLWV = 343000
   max r-space proj   IRMAX =      1   max aug-charges    IRDMAX=  12548
   dimension x,y,z NGX =    70 NGY =   70 NGZ =   70
   dimension x,y,z NGXF=    96 NGYF=   96 NGZF=   96
   support grid    NGXF=    96 NGYF=   96 NGZF=   96
   ions per type =               4  24   4
 NGX,Y,Z   is equivalent  to a cutoff of  13.46, 13.46, 13.46 a.u.
 NGXF,Y,Z  is equivalent  to a cutoff of  18.47, 18.47, 18.47 a.u.


 I would recommend the setting:
   dimension x,y,z NGX =    67 NGY =   67 NGZ =   67
 SYSTEM =  Ag1F6Sb1_ICSD_28676                     
 POSCAR =  Ag1F6Sb1   [BCC,BCC,cI64] (STD_PRIM doi:

 Startparameter for this run:
   NWRITE =      2    write-flag & timer
   PREC   = high      medium, high low
   ISTART =      0    job   : 0-new  1-cont  2-samecut
   ICHARG =      2    charge: 1-file 2-atom 10-const
   ISPIN  =      1    spin polarized calculation?
   LNONCOLLINEAR =      F non collinear calculations
   LSORBIT =      F    spin-orbit coupling
   INIWAV =      1    electr: 0-lowe 1-rand  2-diag
   LASPH  =      F    aspherical Exc in radial PAW
   METAGGA=      F    non-selfconsistent MetaGGA calc.

 Electronic Relaxation 1
   ENCUT  =  560.0 eV  41.16 Ry    6.42 a.u.  16.68 16.68 16.68*2*pi/ulx,y,z
   ENINI  =  560.0     initial cutoff
   ENAUG  =  613.6 eV  augmentation charge cutoff
   NELM   =    120;   NELMIN=  2; NELMDL= -5     # of ELM steps 
   EDIFF  = 0.1E-03   stopping-criterion for ELM
   LREAL  =      F    real-space projection
   LCOMPAT=      F    compatible to vasp.4.4
   LREAL_COMPAT= F    compatible to vasp.4.5.1-3
   GGA_COMPAT  = T    GGA compatible to vasp.4.4-vasp.4.6
   LMAXPAW     = -100 max onsite density
   LMAXMIX     =    4 max onsite mixed and CHGCAR
   VOSKOWN=      0    Vosko Wilk Nusair interpolation
   ROPT   =    0.00000   0.00000   0.00000
 Ionic relaxation
   EDIFFG = 0.1E-02   stopping-criterion for IOM
   NSW    =      0    number of steps for IOM
   NBLOCK =      1;   KBLOCK =      1    inner block; outer block 
   IBRION =     -1    ionic relax: 0-MD 1-quasi-New 2-CG
   NFREE  =      1    steps in history (QN), initial steepest desc. (CG)
   ISIF   =      2    stress and relaxation
   IWAVPR =      0    prediction:  0-non 1-charg 2-wave 3-comb
   ISYM   =      2    0-nonsym 1-usesym 2-fastsym
   LCORR  =      T    Harris-Foulkes like correction to forces

   POTIM  =   0.50    time-step for ionic-motion
   TEIN   =    0.0    initial temperature
   TEBEG  =    0.0;   TEEND  =   0.0 temperature during run
   SMASS  =  -3.00    Nose mass-parameter (am)
   estimated Nose-frequenzy (Omega)   =  0.10E-29 period in steps =****** mass=  -0.171E-26a.u.
   NPACO  =    256;   APACO  = 16.0  distance and # of slots for P.C.
   PSTRESS=    0.0 pullay stress

  Mass of Ions in am
   POMASS = 107.87 19.00121.75
  Ionic Valenz
   ZVAL   =  11.00  7.00  5.00
  Atomic Wigner-Seitz radii
   RWIGS  =  -1.00 -1.00 -1.00
   NELECT =     232.0000    total number of electrons
   NUPDOWN=      -1.0000    fix difference up-down

 DOS related values:
   EMIN   = -30.00;   EMAX   = 45.00  energy-range for DOS
   ISMEAR =    -5;   SIGMA  =   0.05  broadening in eV -4-tet -1-fermi 0-gaus

 Electronic relaxation 2 (details)
   IALGO  =     38    algorithm
   LDIAG  =      T    sub-space diagonalisation
   IMIX   =      4    mixing-type and parameters
     AMIX     =   0.40;   BMIX     =  1.00
     AMIX_MAG =   1.60;   BMIX_MAG =  1.00
     AMIN     =   0.10
     WC   =   100.;   INIMIX=   1;  MIXPRE=   1

 Intra band minimization:
   WEIMIN = 0.0000     energy-eigenvalue tresh-hold
   EBREAK =  0.12E-06  absolut break condition
   DEPER  =   0.30     relativ break condition  

   TIME   =   0.10     timestep for ELM

  volume/ion in A,a.u.               =      15.53       104.80
  Fermi-wavevector in a.u.,eV,Ry     =   1.269988 21.944420  1.612869

 Second variation
   LSECVAR=     F    do a second variation
 
 Write flags
   LWAVE  =      F    write WAVECAR
   LCHARG =      T    write CHGCAR
   LVTOT  =      F    write LOCPOT, local potential
   LELF   =      F    write electronic localiz. function (ELF)
   LORBIT =     10    0 simple, 1 ext, 2 COOP (PROOUT)


 Dipole corrections
   IDIPOL =      0    1-x, 2-y, 3-z
   LDIPOL =      F    correct potential

 LDA+U is selected, type is set to LDAUTYPE =  2
   angular momentum for each species LDAUL =     2    0    0
   U (eV)           for each species LDAUU =   5.8  0.0  0.0
   J (eV)           for each species LDAUJ =   0.0  0.0  0.0


--------------------------------------------------------------------------------------------------------


 Static calculation
 charge density will be updated during run
 non-spin polarized calculation
 Variant of blocked Davidson
 Davidson routine will perform the subspace rotation
 performe sub-space diagonalisation
    after iterative eigenvector-optimisation
 modified Broyden-mixing scheme, WC =      100.0
 initial mixing is a Kerker type mixing with AMIX =  0.4000 and BMIX =      1.0000
 Hartree-type preconditioning will be used
 using additional bands           93
 reciprocal scheme for non local part
 use partial core corrections
 calculate Harris-corrections to forces 
   (improved forces if not selfconsistent)
 use gradient corrections 
 use of overlap-Matrix (Vanderbilt PP)
 Fermi weights with tetrahedron method with Bloechl corrections


--------------------------------------------------------------------------------------------------------


  energy-cutoff  :      560.00
  volume of cell :      496.95
      direct lattice vectors                 reciprocal lattice vectors
    -4.989816426  4.989816426  4.989816426     0.000000000  0.100204087  0.100204087
     4.989816426 -4.989816426  4.989816426     0.100204087  0.000000000  0.100204087
     4.989816426  4.989816426 -4.989816426     0.100204087  0.100204087  0.000000000

  length of vectors
     8.642615570  8.642615570  8.642615570     0.141709979  0.141709979  0.141709979


 
 k-points in units of 2pi/SCALE and weight: KPOINTS File, automatically generated by
   0.00000000  0.00000000  0.00000000       0.003
   0.00000000  0.01431487  0.01431487       0.035
   0.00000000  0.02862974  0.02862974       0.035
   0.00000000  0.04294461  0.04294461       0.035
   0.01431487  0.01431487  0.02862974       0.070
   0.01431487  0.02862974  0.04294461       0.070
   0.01431487  0.04294461  0.05725948       0.070
   0.01431487 -0.04294461 -0.02862974       0.070
   0.02862974  0.02862974  0.05725948       0.070
   0.02862974  0.02862974  0.02862974       0.023
   0.02862974  0.04294461  0.04294461       0.070
   0.02862974  0.00000000  0.00000000       0.017
   0.04294461  0.04294461  0.05725948       0.023
   0.04294461 -0.01431487  0.00000000       0.035
   0.04294461  0.00000000  0.01431487       0.035
   0.05725948 -0.02862974  0.00000000       0.035
   0.05725948 -0.01431487  0.01431487       0.070
   0.05725948  0.00000000  0.02862974       0.035
  -0.02862974 -0.02862974 -0.08588922       0.070
   0.05725948  0.00000000  0.00000000       0.017
   0.07157435 -0.01431487  0.00000000       0.035
   0.07157435  0.00000000  0.01431487       0.035
  -0.01431487 -0.01431487 -0.08588922       0.023
   0.08588922  0.00000000  0.00000000       0.017
 
 k-points in reciprocal lattice and weights: KPOINTS File, automatically generated by
   0.00000000  0.00000000  0.00000000       0.003
   0.14285714  0.00000000  0.00000000       0.035
   0.28571429  0.00000000  0.00000000       0.035
   0.42857143  0.00000000  0.00000000       0.035
   0.14285714  0.14285714  0.00000000       0.070
   0.28571429  0.14285714  0.00000000       0.070
   0.42857143  0.14285714  0.00000000       0.070
  -0.42857143  0.14285714  0.00000000       0.070
   0.28571429  0.28571429  0.00000000       0.070
   0.14285714  0.14285714  0.14285714       0.023
   0.28571429  0.14285714  0.14285714       0.070
  -0.14285714  0.14285714  0.14285714       0.017
   0.28571429  0.28571429  0.14285714       0.023
  -0.28571429  0.28571429  0.14285714       0.035
  -0.14285714  0.28571429  0.14285714       0.035
  -0.42857143  0.42857143  0.14285714       0.035
  -0.28571429  0.42857143  0.14285714       0.070
  -0.14285714  0.42857143  0.14285714       0.035
  -0.42857143 -0.42857143  0.14285714       0.070
  -0.28571429  0.28571429  0.28571429       0.017
  -0.42857143  0.42857143  0.28571429       0.035
  -0.28571429  0.42857143  0.28571429       0.035
  -0.42857143 -0.42857143  0.28571429       0.023
  -0.42857143  0.42857143  0.42857143       0.017
 
 position of ions in fractional coordinates (direct lattice) 
   0.00000000  0.00000000  0.50000000
   0.50000000  0.00000000  0.00000000
   0.50000000  0.50000000  0.50000000
   0.00000000  0.50000000  0.00000000
   0.17480494  0.20479015  0.25646314
   0.94832701  0.41834180  0.24353686
   0.32519506  0.08165820  0.52998521
   0.55167299  0.29520985  0.97001479
   0.79520985  0.97001479  0.05167299
   0.58165820  0.52998521  0.82519506
   0.91834180  0.24353686  0.44832701
   0.70479015  0.25646314  0.67480494
   0.02998521  0.82519506  0.08165820
   0.47001479  0.05167299  0.29520985
   0.75646314  0.67480494  0.20479015
   0.74353686  0.44832701  0.41834180
   0.82519506  0.79520985  0.74353686
   0.05167299  0.58165820  0.75646314
   0.67480494  0.91834180  0.47001479
   0.44832701  0.70479015  0.02998521
   0.20479015  0.02998521  0.94832701
   0.41834180  0.47001479  0.17480494
   0.08165820  0.75646314  0.55167299
   0.29520985  0.74353686  0.32519506
   0.97001479  0.17480494  0.91834180
   0.52998521  0.94832701  0.70479015
   0.24353686  0.32519506  0.79520985
   0.25646314  0.55167299  0.58165820
   0.00000000  0.00000000  0.00000000
   0.00000000  0.50000000  0.50000000
   0.50000000  0.00000000  0.50000000
   0.50000000  0.50000000  0.00000000
 
 position of ions in cartesian coordinates  (Angst):
   2.49490821  2.49490821 -2.49490821
  -2.49490821  2.49490821  2.49490821
   2.49490821  2.49490821  2.49490821
   2.49490821 -2.49490821  2.49490821
   1.42932471  1.13008332  0.61440583
  -1.42932471  3.85973311  5.60422225
   1.42932471  3.85973311 -0.61440583
   3.56049172  6.11989974 -0.61440583
   1.13008332 -0.61440583  8.55030814
   3.85973311  4.37541060  1.42932471
  -1.13008332  5.60422225  3.56049172
   1.13008332  5.60422225  1.42932471
   4.37541060 -3.56049172  3.85973311
  -0.61440583  3.56049172  1.13008332
   0.61440583  1.42932471  6.11989974
   0.61440583  3.56049172  3.85973311
   3.56049172  3.85973311  4.37541060
   6.41914113  1.13008332 -0.61440583
   3.56049172  1.13008332  5.60422225
   1.42932471 -1.13008332  5.60422225
   3.85973311  5.60422225 -3.56049172
   1.13008332  0.61440583  3.56049172
   6.11989974 -0.61440583  1.42932471
   3.85973311 -0.61440583  3.56049172
   0.61440583  8.55030814  1.13008332
   5.60422225  1.42932471  3.85973311
   4.37541060  3.56049172 -1.13008332
   4.37541060  1.42932471  1.13008332
   0.00000000  0.00000000  0.00000000
   4.98981643  0.00000000  0.00000000
   0.00000000  4.98981643  0.00000000
   0.00000000  0.00000000  4.98981643
 


--------------------------------------------------------------------------------------------------------


 k-point  1 :  0.00000.00000.0000  plane waves:  14915
 k-point  2 :  0.14290.00000.0000  plane waves:  14949
 k-point  3 :  0.28570.00000.0000  plane waves:  14983
 k-point  4 :  0.42860.00000.0000  plane waves:  14994
 k-point  5 :  0.14290.14290.0000  plane waves:  14969
 k-point  6 :  0.28570.14290.0000  plane waves:  14961
 k-point  7 :  0.42860.14290.0000  plane waves:  14951
 k-point  8 :  -.42860.14290.0000  plane waves:  14961
 k-point  9 :  0.28570.28570.0000  plane waves:  14946
 k-point 10 :  0.14290.14290.1429  plane waves:  14936
 k-point 11 :  0.28570.14290.1429  plane waves:  14960
 k-point 12 :  -.14290.14290.1429  plane waves:  14991
 k-point 13 :  0.28570.28570.1429  plane waves:  14954
 k-point 14 :  -.28570.28570.1429  plane waves:  14950
 k-point 15 :  -.14290.28570.1429  plane waves:  14950
 k-point 16 :  -.42860.42860.1429  plane waves:  14951
 k-point 17 :  -.28570.42860.1429  plane waves:  14974
 k-point 18 :  -.14290.42860.1429  plane waves:  14951
 k-point 19 :  -.4286-.42860.1429  plane waves:  14935
 k-point 20 :  -.28570.28570.2857  plane waves:  14943
 k-point 21 :  -.42860.42860.2857  plane waves:  14920
 k-point 22 :  -.28570.42860.2857  plane waves:  14920
 k-point 23 :  -.4286-.42860.2857  plane waves:  14948
 k-point 24 :  -.42860.42860.4286  plane waves:  14972

 maximum number of plane-waves:  14994
 maximal index in each direction: 
   IXMAX= 17   IYMAX= 17   IZMAX= 16
   IXMIN=-17   IYMIN=-17   IZMIN=-17

 NGX is ok and might be reduce to  70
 NGY is ok and might be reduce to  70
 NGZ is ok and might be reduce to  68
 For storing wavefunctions 1200.11 MBYTES are necessary
 For predicting wavefunctions  112.36 MBYTES are necessary
Broyden mixing: mesh for mixing (old mesh)
   NGX = 33   NGY = 33   NGZ = 33
  (NGX  = 96   NGY  = 96   NGZ  = 96)
 gives a total of  35937 points
 initial charge density was supplied:
 charge density of overlapping atoms calculated
 number of electron  232.0000000 magnetization 
 keeping initial charge density in first step


--------------------------------------------------------------------------------------------------------


 Maximum index for augmentation-charges        12039 (set IRDMAX)


--------------------------------------------------------------------------------------------------------


 First call to EWALD:  gamma=   0.224
 Maximum number of real-space cells 3x 3x 3
 Maximum number of reciprocal cells 3x 3x 3

    FEWALD:  VPU time    0.01: CPU time    0.01


----------------------------------------- Iteration    1(   1)  ---------------------------------------


    POTLOK:  VPU time    0.77: CPU time    0.77
    SETDIJ:  VPU time    0.09: CPU time    0.09
    EDDAV :  VPU time  836.21: CPU time  837.10
 BZINTS: Fermi energy: 13.844363;232.000000 electrons
         Band energy: -39.102204;  BLOECHL correction: -0.039740
    DOS   :  VPU time    0.00: CPU time   -0.00
    ------------------------------------------
      LOOP:  VPU time  837.64: CPU time  838.71

 eigenvalue-minimisations  : 10032
 total energy-change (2. order) : 0.1956731E+04  (-0.1204388E+05)
 number of electron  232.0000000 magnetization 
 augmentation part   232.0000000 magnetization 

 Free energy of the ion-electron system (eV)
  ---------------------------------------------------
  alpha Z        PSCENC =       560.06517162
  Ewald energy   TEWEN  =    -13596.56846430
  -1/2 Hartree   DENC   =     -6577.80513519
  -V(xc)+E(xc)   XCENC  =       657.93881127
  PAW double counting   =     14180.01400828   -13803.83093261
  entropy T*S    EENTRO =         0.00000000
  eigenvalues    EBANDS =       -39.10220413
  atomic energy  EATOM  =     20576.01980158
  ---------------------------------------------------
  free energy    TOTEN  =      1956.73105650 eV

  energy without entropy =     1956.73105650  energy(sigma->0) =     1956.73105650


--------------------------------------------------------------------------------------------------------




----------------------------------------- Iteration    1(   2)  ---------------------------------------


    EDDAV :  VPU time 1007.96: CPU time 1009.38
 BZINTS: Fermi energy:  0.051245;232.000000 electrons
         Band energy:***********;  BLOECHL correction:  0.000000
    DOS   :  VPU time    0.00: CPU time   -0.00
    ------------------------------------------
      LOOP:  VPU time 1008.31: CPU time 1009.88

 eigenvalue-minimisations  : 11464
 total energy-change (2. order) :-0.1953394E+04  (-0.1834059E+04)
 number of electron  232.0000000 magnetization 
 augmentation part   232.0000000 magnetization 

 Free energy of the ion-electron system (eV)
  ---------------------------------------------------
  alpha Z        PSCENC =       560.06517162
  Ewald energy   TEWEN  =    -13596.56846430
  -1/2 Hartree   DENC   =     -6577.80513519
  -V(xc)+E(xc)   XCENC  =       657.93881127
  PAW double counting   =     14180.01400828   -13803.83093261
  entropy T*S    EENTRO =         0.00000000
  eigenvalues    EBANDS =     -1992.49616457
  atomic energy  EATOM  =     20576.01980158
  ---------------------------------------------------
  free energy    TOTEN  =         3.33709606 eV

  energy without entropy =        3.33709606  energy(sigma->0) =        3.33709606


--------------------------------------------------------------------------------------------------------




----------------------------------------- Iteration    1(   3)  ---------------------------------------


    EDDAV :  VPU time  987.68: CPU time  989.10
 BZINTS: Fermi energy: -2.105671;232.000000 electrons
         Band energy:***********;  BLOECHL correction:  0.000000
    DOS   :  VPU time    0.00: CPU time   -0.00
    ------------------------------------------
      LOOP:  VPU time  987.99: CPU time  989.58

 eigenvalue-minimisations  : 11400
 total energy-change (2. order) :-0.1508646E+03  (-0.1489046E+03)
 number of electron  232.0000000 magnetization 
 augmentation part   232.0000000 magnetization 

 Free energy of the ion-electron system (eV)
  ---------------------------------------------------
  alpha Z        PSCENC =       560.06517162
  Ewald energy   TEWEN  =    -13596.56846430
  -1/2 Hartree   DENC   =     -6577.80513519
  -V(xc)+E(xc)   XCENC  =       657.93881127
  PAW double counting   =     14180.01400828   -13803.83093261
  entropy T*S    EENTRO =         0.00000000
  eigenvalues    EBANDS =     -2143.36079142
  atomic energy  EATOM  =     20576.01980158
  ---------------------------------------------------
  free energy    TOTEN  =      -147.52753078 eV

  energy without entropy =     -147.52753078  energy(sigma->0) =     -147.52753078


--------------------------------------------------------------------------------------------------------




----------------------------------------- Iteration    1(   4)  ---------------------------------------


    EDDAV :  VPU time  962.14: CPU time  963.51
 BZINTS: Fermi energy: -2.131926;232.000000 electrons
         Band energy:***********;  BLOECHL correction:  0.000000
    DOS   :  VPU time    0.00: CPU time   -0.00
    ------------------------------------------
      LOOP:  VPU time  962.44: CPU time  963.95

 eigenvalue-minimisations  : 11056
 total energy-change (2. order) :-0.1730374E+01  (-0.1728754E+01)
 number of electron  232.0000000 magnetization 
 augmentation part   232.0000000 magnetization 

 Free energy of the ion-electron system (eV)
  ---------------------------------------------------
  alpha Z        PSCENC =       560.06517162
  Ewald energy   TEWEN  =    -13596.56846430
  -1/2 Hartree   DENC   =     -6577.80513519
  -V(xc)+E(xc)   XCENC  =       657.93881127
  PAW double counting   =     14180.01400828   -13803.83093261
  entropy T*S    EENTRO =         0.00000000
  eigenvalues    EBANDS =     -2145.09116492
  atomic energy  EATOM  =     20576.01980158
  ---------------------------------------------------
  free energy    TOTEN  =      -149.25790429 eV

  energy without entropy =     -149.25790429  energy(sigma->0) =     -149.25790429


--------------------------------------------------------------------------------------------------------




----------------------------------------- Iteration    1(   5)  ---------------------------------------


    EDDAV :  VPU time  973.84: CPU time  975.22
 BZINTS: Fermi energy: -2.131926;232.000000 electrons
         Band energy:***********;  BLOECHL correction:  0.000000
    DOS   :  VPU time    0.00: CPU time   -0.00
    CHARGE:  VPU time   43.68: CPU time   43.72
    MIXING:  VPU time    0.02: CPU time    0.02
    ------------------------------------------
      LOOP:  VPU time 1017.85: CPU time 1019.43

 eigenvalue-minimisations  : 11056
 total energy-change (2. order) :-0.1400788E-01  (-0.1400754E-01)
 number of electron  231.9999750 magnetization 
 augmentation part    53.9990942 magnetization 

 Broyden mixing:
  rms(total) = 0.24926E+01    rms(broyden)= 0.24913E+01
  rms(prec ) = 0.39677E+01
  weight for this iteration     100.00

 Free energy of the ion-electron system (eV)
  ---------------------------------------------------
  alpha Z        PSCENC =       560.06517162
  Ewald energy   TEWEN  =    -13596.56846430
  -1/2 Hartree   DENC   =     -6577.80513519
  -V(xc)+E(xc)   XCENC  =       657.93881127
  PAW double counting   =     14180.01400828   -13803.83093261
  entropy T*S    EENTRO =         0.00000000
  eigenvalues    EBANDS =     -2145.10517280
  atomic energy  EATOM  =     20576.01980158
  ---------------------------------------------------
  free energy    TOTEN  =      -149.27191217 eV

  energy without entropy =     -149.27191217  energy(sigma->0) =     -149.27191217


--------------------------------------------------------------------------------------------------------




----------------------------------------- Iteration    1(   6)  ---------------------------------------


    POTLOK:  VPU time    0.75: CPU time    0.75
    SETDIJ:  VPU time    0.09: CPU time    0.09
    EDDAV :  VPU time  922.65: CPU time  923.94
 BZINTS: Fermi energy: -1.895629;232.000000 electrons
         Band energy:***********;  BLOECHL correction:  0.000000
    DOS   :  VPU time    0.00: CPU time   -0.00
    CHARGE:  VPU time   42.88: CPU time   42.92
    MIXING:  VPU time    0.02: CPU time    0.02
    ------------------------------------------
      LOOP:  VPU time  966.70: CPU time  968.19

 eigenvalue-minimisations  : 10420
 total energy-change (2. order) : 0.1783205E+02  (-0.3712998E+01)
 number of electron  231.9999760 magnetization 
 augmentation part    50.8017424 magnetization 

 Broyden mixing:
  rms(total) = 0.82757E+00    rms(broyden)= 0.82631E+00
  rms(prec ) = 0.10671E+01
  weight for this iteration     100.00

 eigenvalues of (default mixing * dielectric matrix)
  average eigenvalue GAMMA=   0.9039
  0.9039

 Free energy of the ion-electron system (eV)
  ---------------------------------------------------
  alpha Z        PSCENC =       560.06517162
  Ewald energy   TEWEN  =    -13596.56846430
  -1/2 Hartree   DENC   =     -6905.71254684
  -V(xc)+E(xc)   XCENC  =       680.14752574
  PAW double counting   =     15003.44735481   -14631.80018198
  entropy T*S    EENTRO =         0.00000000
  eigenvalues    EBANDS =     -1817.03852700
  atomic energy  EATOM  =     20576.01980158
  ---------------------------------------------------
  free energy    TOTEN  =      -131.43986638 eV

  energy without entropy =     -131.43986638  energy(sigma->0) =     -131.43986638


--------------------------------------------------------------------------------------------------------




----------------------------------------- Iteration    1(   7)  ---------------------------------------


    POTLOK:  VPU time    0.74: CPU time    0.74
    SETDIJ:  VPU time    0.09: CPU time    0.09
    EDDAV :  VPU time  951.36: CPU time  952.70
 BZINTS: Fermi energy: -1.910632;232.000000 electrons
         Band energy:***********;  BLOECHL correction:  0.000000
    DOS   :  VPU time    0.00: CPU time   -0.00
    CHARGE:  VPU time   43.48: CPU time   43.52
    MIXING:  VPU time    0.03: CPU time    0.03
    ------------------------------------------
      LOOP:  VPU time  996.00: CPU time  997.58

 eigenvalue-minimisations  : 11024
 total energy-change (2. order) : 0.1296259E+00  (-0.3684745E+00)
 number of electron  231.9999759 magnetization 
 augmentation part    50.5692745 magnetization 

 Broyden mixing:
  rms(total) = 0.50981E+00    rms(broyden)= 0.50973E+00
  rms(prec ) = 0.65350E+00
  weight for this iteration     100.00

 eigenvalues of (default mixing * dielectric matrix)
  average eigenvalue GAMMA=   1.6228
  1.0343  2.2114

 Free energy of the ion-electron system (eV)
  ---------------------------------------------------
  alpha Z        PSCENC =       560.06517162
  Ewald energy   TEWEN  =    -13596.56846430
  -1/2 Hartree   DENC   =     -6910.94860779
  -V(xc)+E(xc)   XCENC  =       680.64166704
  PAW double counting   =     15119.93484870   -14741.21527573
  entropy T*S    EENTRO =         0.00000000
  eigenvalues    EBANDS =     -1819.23938157
  atomic energy  EATOM  =     20576.01980158
  ---------------------------------------------------
  free energy    TOTEN  =      -131.31024046 eV

  energy without entropy =     -131.31024046  energy(sigma->0) =     -131.31024046


--------------------------------------------------------------------------------------------------------




----------------------------------------- Iteration    1(   8)  ---------------------------------------


    POTLOK:  VPU time    0.74: CPU time    0.74
    SETDIJ:  VPU time    0.09: CPU time    0.09
    EDDAV :  VPU time  965.42: CPU time  966.78
 BZINTS: Fermi energy: -2.045659;232.000000 electrons
         Band energy:***********;  BLOECHL correction:  0.000000
    DOS   :  VPU time    0.00: CPU time   -0.00
    CHARGE:  VPU time   43.37: CPU time   43.42
    MIXING:  VPU time    0.03: CPU time    0.03
    ------------------------------------------
      LOOP:  VPU time 1009.95: CPU time 1011.53

 eigenvalue-minimisations  : 10799
 total energy-change (2. order) : 0.1367553E+00  (-0.6084449E-01)
 number of electron  231.9999757 magnetization 
 augmentation part    50.7310054 magnetization 

 Broyden mixing:
  rms(total) = 0.10252E+00    rms(broyden)= 0.10247E+00
  rms(prec ) = 0.15263E+00
  weight for this iteration     100.00

 eigenvalues of (default mixing * dielectric matrix)
  average eigenvalue GAMMA=   1.4640
  2.4968  0.9476  0.9476

 Free energy of the ion-electron system (eV)
  ---------------------------------------------------
  alpha Z        PSCENC =       560.06517162
  Ewald energy   TEWEN  =    -13596.56846430
  -1/2 Hartree   DENC   =     -6910.69617441
  -V(xc)+E(xc)   XCENC  =       681.04243878
  PAW double counting   =     15281.09035113   -14891.44504499
  entropy T*S    EENTRO =         0.00000000
  eigenvalues    EBANDS =     -1830.68156454
  atomic energy  EATOM  =     20576.01980158
  ---------------------------------------------------
  free energy    TOTEN  =      -131.17348515 eV

  energy without entropy =     -131.17348515  energy(sigma->0) =     -131.17348515


--------------------------------------------------------------------------------------------------------




----------------------------------------- Iteration    1(   9)  ---------------------------------------


    POTLOK:  VPU time    0.76: CPU time    0.77
    SETDIJ:  VPU time    0.09: CPU time    0.09
    EDDAV :  VPU time 1032.60: CPU time 1034.14
 BZINTS: Fermi energy: -2.017529;232.000000 electrons
         Band energy:***********;  BLOECHL correction:  0.000000
    DOS   :  VPU time    0.00: CPU time   -0.00
    CHARGE:  VPU time   42.93: CPU time   42.98
    MIXING:  VPU time    0.03: CPU time    0.03
    ------------------------------------------
      LOOP:  VPU time 1076.73: CPU time 1078.55

 eigenvalue-minimisations  : 11264
 total energy-change (2. order) : 0.8797230E-02  (-0.9922031E-02)
 number of electron  231.9999758 magnetization 
 augmentation part    50.6041093 magnetization 

 Broyden mixing:
  rms(total) = 0.28903E-01    rms(broyden)= 0.28889E-01
  rms(prec ) = 0.43346E-01
  weight for this iteration     100.00

 eigenvalues of (default mixing * dielectric matrix)
  average eigenvalue GAMMA=   1.5368
  0.9350  0.9350  2.1544  2.1226

 Free energy of the ion-electron system (eV)
  ---------------------------------------------------
  alpha Z        PSCENC =       560.06517162
  Ewald energy   TEWEN  =    -13596.56846430
  -1/2 Hartree   DENC   =     -6924.48594307
  -V(xc)+E(xc)   XCENC  =       681.93937339
  PAW double counting   =     15312.01471351   -14922.06821228
  entropy T*S    EENTRO =         0.00000000
  eigenvalues    EBANDS =     -1818.08112836
  atomic energy  EATOM  =     20576.01980158
  ---------------------------------------------------
  free energy    TOTEN  =      -131.16468792 eV

  energy without entropy =     -131.16468792  energy(sigma->0) =     -131.16468792


--------------------------------------------------------------------------------------------------------




----------------------------------------- Iteration    1(  10)  ---------------------------------------


    POTLOK:  VPU time    0.74: CPU time    0.74
    SETDIJ:  VPU time    0.09: CPU time    0.09
    EDDAV :  VPU time  977.06: CPU time  978.31
 BZINTS: Fermi energy: -2.017529;232.000000 electrons
         Band energy:***********;  BLOECHL correction:  0.000000
    DOS   :  VPU time    0.00: CPU time   -0.00
    CHARGE:  VPU time   42.43: CPU time   42.47
    MIXING:  VPU time    0.03: CPU time    0.03
    ------------------------------------------
      LOOP:  VPU time 1020.67: CPU time 1022.11

 eigenvalue-minimisations  : 11424
 total energy-change (2. order) :-0.2060170E-02  (-0.1124261E-02)
 number of electron  231.9999758 magnetization 
 augmentation part    50.5924203 magnetization 

 Broyden mixing:
  rms(total) = 0.17689E-01    rms(broyden)= 0.17678E-01
  rms(prec ) = 0.23701E-01
  weight for this iteration     100.00

 eigenvalues of (default mixing * dielectric matrix)
  average eigenvalue GAMMA=   1.4988
  2.5417  2.1303  0.9611  0.9611  0.8997

 Free energy of the ion-electron system (eV)
  ---------------------------------------------------
  alpha Z        PSCENC =       560.06517162
  Ewald energy   TEWEN  =    -13596.56846430
  -1/2 Hartree   DENC   =     -6928.55980307
  -V(xc)+E(xc)   XCENC  =       682.15212967
  PAW double counting   =     15309.48541548   -14919.52046753
  entropy T*S    EENTRO =         0.00000000
  eigenvalues    EBANDS =     -1814.24053153
  atomic energy  EATOM  =     20576.01980158
  ---------------------------------------------------
  free energy    TOTEN  =      -131.16674809 eV

  energy without entropy =     -131.16674809  energy(sigma->0) =     -131.16674809


--------------------------------------------------------------------------------------------------------




----------------------------------------- Iteration    1(  11)  ---------------------------------------


    POTLOK:  VPU time    0.75: CPU time    0.75
    SETDIJ:  VPU time    0.09: CPU time    0.09
    EDDAV :  VPU time  911.11: CPU time  912.23
 BZINTS: Fermi energy: -2.030656;232.000000 electrons
         Band energy:***********;  BLOECHL correction:  0.000000
    DOS   :  VPU time    0.00: CPU time   -0.00
    CHARGE:  VPU time   42.77: CPU time   42.81
    MIXING:  VPU time    0.03: CPU time    0.03
    ------------------------------------------
      LOOP:  VPU time  955.06: CPU time  956.55

 eigenvalue-minimisations  : 10824
 total energy-change (2. order) :-0.5610824E-03  (-0.3842068E-03)
 number of electron  231.9999758 magnetization 
 augmentation part    50.5938807 magnetization 

 Broyden mixing:
  rms(total) = 0.61550E-02    rms(broyden)= 0.61539E-02
  rms(prec ) = 0.79887E-02
  weight for this iteration     100.00

 eigenvalues of (default mixing * dielectric matrix)
  average eigenvalue GAMMA=   1.5258
  2.8809  1.8258  1.8258  0.9601  0.9601  0.7019

 Free energy of the ion-electron system (eV)
  ---------------------------------------------------
  alpha Z        PSCENC =       560.06517162
  Ewald energy   TEWEN  =    -13596.56846430
  -1/2 Hartree   DENC   =     -6927.95296021
  -V(xc)+E(xc)   XCENC  =       682.11276751
  PAW double counting   =     15309.54192045   -14919.30789109
  entropy T*S    EENTRO =         0.00000000
  eigenvalues    EBANDS =     -1815.07765473
  atomic energy  EATOM  =     20576.01980158
  ---------------------------------------------------
  free energy    TOTEN  =      -131.16730917 eV

  energy without entropy =     -131.16730917  energy(sigma->0) =     -131.16730917


--------------------------------------------------------------------------------------------------------




----------------------------------------- Iteration    1(  12)  ---------------------------------------


    POTLOK:  VPU time    0.76: CPU time    0.76
    SETDIJ:  VPU time    0.09: CPU time    0.09
    EDDAV :  VPU time  886.54: CPU time  887.79
 BZINTS: Fermi energy: -2.030656;232.000000 electrons
         Band energy:***********;  BLOECHL correction:  0.000000
    DOS   :  VPU time    0.00: CPU time   -0.00
    CHARGE:  VPU time   42.78: CPU time   42.82
    MIXING:  VPU time    0.04: CPU time    0.04
    ------------------------------------------
      LOOP:  VPU time  930.52: CPU time  931.99

 eigenvalue-minimisations  : 10000
 total energy-change (2. order) :-0.1610958E-03  (-0.3824156E-04)
 number of electron  231.9999758 magnetization 
 augmentation part    50.6015248 magnetization 

 Broyden mixing:
  rms(total) = 0.51896E-02    rms(broyden)= 0.51880E-02
  rms(prec ) = 0.64147E-02
  weight for this iteration     100.00

 eigenvalues of (default mixing * dielectric matrix)
  average eigenvalue GAMMA=   1.5381
  2.9298  2.4302  1.6894  1.0015  1.0015  0.9625  0.7520

 Free energy of the ion-electron system (eV)
  ---------------------------------------------------
  alpha Z        PSCENC =       560.06517162
  Ewald energy   TEWEN  =    -13596.56846430
  -1/2 Hartree   DENC   =     -6927.48769556
  -V(xc)+E(xc)   XCENC  =       682.08790230
  PAW double counting   =     15308.96866363   -14918.56688832
  entropy T*S    EENTRO =         0.00000000
  eigenvalues    EBANDS =     -1815.68596120
  atomic energy  EATOM  =     20576.01980158
  ---------------------------------------------------
  free energy    TOTEN  =      -131.16747027 eV

  energy without entropy =     -131.16747027  energy(sigma->0) =     -131.16747027


--------------------------------------------------------------------------------------------------------




----------------------------------------- Iteration    1(  13)  ---------------------------------------


    POTLOK:  VPU time    0.75: CPU time    0.75
    SETDIJ:  VPU time    0.09: CPU time    0.09
    EDDAV :  VPU time  712.82: CPU time  713.84
 BZINTS: Fermi energy: -2.030656;232.000000 electrons
         Band energy:***********;  BLOECHL correction:  0.000000
    DOS   :  VPU time    0.00: CPU time   -0.00
    ------------------------------------------
      LOOP:  VPU time  713.97: CPU time  715.15

 eigenvalue-minimisations  :  6816
 total energy-change (2. order) : 0.3756309E-04  (-0.8073586E-05)
 number of electron  231.9999758 magnetization 
 augmentation part    50.6015248 magnetization 

 Free energy of the ion-electron system (eV)
  ---------------------------------------------------
  alpha Z        PSCENC =       560.06517162
  Ewald energy   TEWEN  =    -13596.56846430
  -1/2 Hartree   DENC   =     -6927.80551292
  -V(xc)+E(xc)   XCENC  =       682.10388993
  PAW double counting   =     15308.25918911   -14917.90412181
  entropy T*S    EENTRO =         0.00000000
  eigenvalues    EBANDS =     -1815.33738590
  atomic energy  EATOM  =     20576.01980158
  ---------------------------------------------------
  free energy    TOTEN  =      -131.16743270 eV

  energy without entropy =     -131.16743270  energy(sigma->0) =     -131.16743270


--------------------------------------------------------------------------------------------------------




 average (electrostatic) potential at core
  the test charge radii are     1.1249  0.7167  1.1712
  (the norm of the test charge is              1.0000)
       1 -40.8159       2 -40.8159       3 -40.8159       4 -40.8159       5 -78.9747
       6 -78.9747       7 -78.9747       8 -78.9747       9 -78.9747      10 -78.9747
      11 -78.9747      12 -78.9747      13 -78.9747      14 -78.9747      15 -78.9747
      16 -78.9747      17 -78.9747      18 -78.9747      19 -78.9747      20 -78.9747
      21 -78.9747      22 -78.9747      23 -78.9747      24 -78.9747      25 -78.9747
      26 -78.9747      27 -78.9747      28 -78.9747      29 -93.8189      30 -93.8189
      31 -93.8189      32 -93.8189
 
 
 
 E-fermi :  -2.0307     XC(G=0):  -8.9205     alpha+bet : -7.1776
   add alpha+bet to get absolut eigen values

 k-point   1 :       0.0000    0.0000    0.0000
  band No.  band energies     occupation 
      1     -23.6387      2.00000
      2     -23.4959      2.00000
      3     -23.4959      2.00000
      4     -23.4959      2.00000
      5     -22.7836      2.00000
      6     -22.7836      2.00000
      7     -22.7836      2.00000
      8     -22.7820      2.00000
      9     -22.7820      2.00000
     10     -22.7784      2.00000
     11     -22.7215      2.00000
     12     -22.7215      2.00000
     13     -22.7215      2.00000
     14     -22.6563      2.00000
     15     -22.6563      2.00000
     16     -22.6563      2.00000
     17     -22.2554      2.00000
     18     -22.2554      2.00000
     19     -22.2554      2.00000
     20     -22.2233      2.00000
     21     -22.2233      2.00000
     22     -22.1818      2.00000
     23     -22.1818      2.00000
     24     -22.1818      2.00000
     25      -9.4098      2.00000
     26      -9.2977      2.00000
     27      -9.2977      2.00000
     28      -9.2977      2.00000
     29      -6.2129      2.00000
     30      -6.2129      2.00000
     31      -6.2129      2.00000
     32      -6.0746      2.00000
     33      -6.0746      2.00000
     34      -6.0226      2.00000
     35      -6.0226      2.00000
     36      -6.0226      2.00000
     37      -5.8931      2.00000
     38      -5.8884      2.00000
     39      -5.8884      2.00000
     40      -5.8884      2.00000
     41      -4.7222      2.00000
     42      -4.7222      2.00000
     43      -4.7222      2.00000
     44      -4.6943      2.00000
     45      -4.6943      2.00000
     46      -4.5314      2.00000
     47      -4.5314      2.00000
     48      -4.5314      2.00000
     49      -4.5046      2.00000
     50      -4.5046      2.00000
     51      -4.3433      2.00000
     52      -4.2087      2.00000
     53      -4.2087      2.00000
     54      -4.2087      2.00000
     55      -4.0798      2.00000
     56      -4.0798      2.00000
     57      -4.0798      2.00000
     58      -3.9144      2.00000
     59      -3.9144      2.00000
     60      -3.9144      2.00000
     61      -3.8993      2.00000
     62      -3.8993      2.00000
     63      -3.8765      2.00000
     64      -3.4961      2.00000
     65      -3.4961      2.00000
     66      -3.4961      2.00000
     67      -3.4699      2.00000
     68      -3.4698      2.00000
     69      -3.4698      2.00000
     70      -3.4297      2.00000
     71      -3.4297      2.00000
     72      -3.3472      2.00000
     73      -3.3472      2.00000
     74      -3.3472      2.00000
     75      -3.3419      2.00000
     76      -3.2673      2.00000
     77      -3.2673      2.00000
     78      -3.2673      2.00000
     79      -3.1344      2.00000
     80      -3.1344      2.00000
     81      -3.1344      2.00000
     82      -3.0965      2.00000
     83      -3.0965      2.00000
     84      -3.0965      2.00000
     85      -3.0673      2.00000
     86      -3.0673      2.00000
     87      -3.0672      2.00000
     88      -3.0199      2.00000
     89      -3.0199      2.00000
     90      -2.9645      2.00000
     91      -2.9645      2.00000
     92      -2.9645      2.00000
     93      -2.9116      2.00000
     94      -2.9116      2.00000
     95      -2.9116      2.00000
     96      -2.8333      2.00000
     97      -2.8083      2.00000
     98      -2.8083      2.00000
     99      -2.8083      2.00000
    100      -2.6993      2.00000
    101      -2.6993      2.00000
    102      -2.6804      2.00000
    103      -2.6087      2.00000
    104      -2.6087      2.00000
    105      -2.6087      2.00000
    106      -2.5325      2.00000
    107      -2.5325      2.00000
    108      -2.5325      2.00000
    109      -2.3258      2.00000
    110      -2.3258      2.00000
    111      -2.3258      2.00000
    112      -2.0554      2.00000
    113      -2.0554      2.00000
    114      -2.0342      2.00000
    115      -2.0342      2.00000
    116      -2.0342      2.00000
    117       1.3403      0.00000
    118       3.1806      0.00000
    119       3.1806      0.00000
    120       3.1806      0.00000
    121       5.0072      0.00000
    122       5.0072      0.00000
    123       5.0072      0.00000
    124       5.6472      0.00000
    125       6.9587      0.00000
    126       7.0737      0.00000
    127       7.0737      0.00000
    128       7.0737      0.00000
    129       7.2282      0.00000
    130       7.2282      0.00000
    131       7.7769      0.00000
    132       7.7769      0.00000
    133       7.7769      0.00000
    134       8.6100      0.00000
    135       8.6100      0.00000
    136       8.6100      0.00000
    137       9.5857      0.00000
    138       9.5857      0.00000
    139       9.5857      0.00000
    140       9.6733      0.00000
    141      10.4333      0.00000
    142      10.4333      0.00000
    143      10.7484      0.00000
    144      10.7484      0.00000
    145      10.7484      0.00000
    146      10.7669      0.00000
    147      11.2264      0.00000
    148      11.2264      0.00000
    149      11.2264      0.00000
    150      11.8696      0.00000
    151      11.8697      0.00000
    152      11.8697      0.00000
    153      11.8989      0.00000
    154      11.8989      0.00000
    155      12.4306      0.00000
    156      12.4306      0.00000
    157      12.4306      0.00000
    158      13.0872      0.00000
    159      13.0872      0.00000
    160      13.0873      0.00000
    161      13.2152      0.00000
    162      13.2152      0.00000
    163      13.2300      0.00000
    164      13.6251      0.00000
    165      13.8430      0.00000
    166      13.8430      0.00000
    167      13.8430      0.00000
    168      14.0745      0.00000
    169      14.0745      0.00000
    170      14.0745      0.00000
    171      14.3147      0.00000
    172      14.3147      0.00000
    173      14.3147      0.00000
    174      14.6765      0.00000
    175      14.6765      0.00000
    176      15.0675      0.00000
    177      15.1023      0.00000
    178      15.1023      0.00000
    179      16.1532      0.00000
    180      16.1532      0.00000
    181      16.1532      0.00000
    182      16.5521      0.00000
    183      16.5521      0.00000
    184      16.5521      0.00000
    185      16.7329      0.00000
    186      16.9336      0.00000
    187      16.9336      0.00000
    188      16.9336      0.00000
    189      17.1748      0.00000
    190      17.1748      0.00000
    191      17.7686      0.00000
    192      17.7687      0.00000
    193      17.7687      0.00000
    194      18.0556      0.00000
    195      18.0556      0.00000
    196      18.0556      0.00000
    197      18.4057      0.00000
    198      18.4057      0.00000
    199      18.4416      0.00000
    200      18.5383      0.00000
    201      18.5383      0.00000
    202      18.5383      0.00000
    203      18.7722      0.00000
    204      18.7722      0.00000
    205      18.7722      0.00000
    206      19.1081      0.00000
    207      19.1082      0.00000
    208      19.1083      0.00000
    209      19.3291      0.00000

 k-point   2 :       0.1429    0.0000    0.0000
  band No.  band energies     occupation 
      1     -23.6320      2.00000
      2     -23.5033      2.00000
      3     -23.4964      2.00000
      4     -23.4964      2.00000
      5     -22.7841      2.00000
      6     -22.7817      2.00000
      7     -22.7811      2.00000
      8     -22.7784      2.00000
      9     -22.7782      2.00000
     10     -22.7744      2.00000
     11     -22.7249      2.00000
     12     -22.7240      2.00000
     13     -22.7190      2.00000
     14     -22.6625      2.00000
     15     -22.6621      2.00000
     16     -22.6601      2.00000
     17     -22.2531      2.00000
     18     -22.2519      2.00000
     19     -22.2518      2.00000
     20     -22.2242      2.00000
     21     -22.2207      2.00000
     22     -22.1840      2.00000
     23     -22.1838      2.00000
     24     -22.1834      2.00000
     25      -9.3994      2.00000
     26      -9.2986      2.00000
     27      -9.2938      2.00000
     28      -9.2933      2.00000
     29      -6.2294      2.00000
     30      -6.2269      2.00000
     31      -6.2174      2.00000
     32      -6.0869      2.00000
     33      -6.0807      2.00000
     34      -6.0443      2.00000
     35      -6.0319      2.00000
     36      -6.0276      2.00000
     37      -5.9436      2.00000
     38      -5.9170      2.00000
     39      -5.9056      2.00000
     40      -5.9040      2.00000
     41      -4.6909      2.00000
     42      -4.6834      2.00000
     43      -4.6743      2.00000
     44      -4.6671      2.00000
     45      -4.6597      2.00000
     46      -4.5150      2.00000
     47      -4.5143      2.00000
     48      -4.4987      2.00000
     49      -4.4745      2.00000
     50      -4.4451      2.00000
     51      -4.3240      2.00000
     52      -4.2351      2.00000
     53      -4.2163      2.00000
     54      -4.2007      2.00000
     55      -4.1012      2.00000
     56      -4.0850      2.00000
     57      -4.0758      2.00000
     58      -3.9677      2.00000
     59      -3.9311      2.00000
     60      -3.9192      2.00000
     61      -3.9078      2.00000
     62      -3.8909      2.00000
     63      -3.8516      2.00000
     64      -3.5134      2.00000
     65      -3.5058      2.00000
     66      -3.4953      2.00000
     67      -3.4930      2.00000
     68      -3.4846      2.00000
     69      -3.4657      2.00000
     70      -3.4470      2.00000
     71      -3.4346      2.00000
     72      -3.3843      2.00000
     73      -3.3670      2.00000
     74      -3.3660      2.00000
     75      -3.3282      2.00000
     76      -3.2504      2.00000
     77      -3.2393      2.00000
     78      -3.2345      2.00000
     79      -3.1476      2.00000
     80      -3.1386      2.00000
     81      -3.1262      2.00000
     82      -3.1068      2.00000
     83      -3.0931      2.00000
     84      -3.0876      2.00000
     85      -3.0858      2.00000
     86      -3.0686      2.00000
     87      -3.0583      2.00000
     88      -3.0132      2.00000
     89      -3.0079      2.00000
     90      -2.9770      2.00000
     91      -2.9768      2.00000
     92      -2.9596      2.00000
     93      -2.8961      2.00000
     94      -2.8934      2.00000
     95      -2.8916      2.00000
     96      -2.8208      2.00000
     97      -2.7850      2.00000
     98      -2.7786      2.00000
     99      -2.7783      2.00000
    100      -2.7003      2.00000
    101      -2.6965      2.00000
    102      -2.6782      2.00000
    103      -2.6122      2.00000
    104      -2.6040      2.00000
    105      -2.6014      2.00000
    106      -2.5431      2.00000
    107      -2.5404      2.00000
    108      -2.5376      2.00000
    109      -2.3338      2.00000
    110      -2.3289      2.00000
    111      -2.3250      2.00000
    112      -2.0898      2.00000
    113      -2.0757      2.00000
    114      -2.0715      2.00000
    115      -2.0495      2.00000
    116      -2.0450      2.00000
    117       1.4427      0.00000
    118       3.1250      0.00000
    119       3.1602      0.00000
    120       3.1606      0.00000
    121       4.8879      0.00000
    122       4.9378      0.00000
    123       4.9621      0.00000
    124       5.5297      0.00000
    125       7.0386      0.00000
    126       7.1441      0.00000
    127       7.1647      0.00000
    128       7.2043      0.00000
    129       7.3074      0.00000
    130       7.3731      0.00000
    131       7.7674      0.00000
    132       7.8332      0.00000
    133       7.8647      0.00000
    134       8.5798      0.00000
    135       8.5824      0.00000
    136       8.6192      0.00000
    137       9.4494      0.00000
    138       9.4886      0.00000
    139       9.5270      0.00000
    140       9.6261      0.00000
    141      10.3198      0.00000
    142      10.3482      0.00000
    143      10.3790      0.00000
    144      10.5463      0.00000
    145      10.6623      0.00000
    146      11.0699      0.00000
    147      11.2376      0.00000
    148      11.3059      0.00000
    149      11.3964      0.00000
    150      11.6452      0.00000
    151      11.8119      0.00000
    152      11.8552      0.00000
    153      12.0816      0.00000
    154      12.1502      0.00000
    155      12.4887      0.00000
    156      12.6557      0.00000
    157      12.6587      0.00000
    158      13.0890      0.00000
    159      13.1241      0.00000
    160      13.1676      0.00000
    161      13.1866      0.00000
    162      13.2667      0.00000
    163      13.2850      0.00000
    164      13.4766      0.00000
    165      13.6733      0.00000
    166      13.6793      0.00000
    167      13.8560      0.00000
    168      14.0359      0.00000
    169      14.1469      0.00000
    170      14.1733      0.00000
    171      14.1870      0.00000
    172      14.3863      0.00000
    173      14.4141      0.00000
    174      14.6997      0.00000
    175      14.8392      0.00000
    176      15.0564      0.00000
    177      15.1821      0.00000
    178      15.2380      0.00000
    179      16.0003      0.00000
    180      16.0381      0.00000
    181      16.0650      0.00000
    182      16.5208      0.00000
    183      16.5236      0.00000
    184      16.6408      0.00000
    185      16.6545      0.00000
    186      16.8130      0.00000
    187      16.8227      0.00000
    188      16.9336      0.00000
    189      16.9534      0.00000
    190      17.0693      0.00000
    191      17.4229      0.00000
    192      17.4976      0.00000
    193      17.7362      0.00000
    194      18.0413      0.00000
    195      18.0426      0.00000
    196      18.2096      0.00000
    197      18.2358      0.00000
    198      18.3705      0.00000
    199      18.3976      0.00000
    200      18.5256      0.00000
    201      18.5926      0.00000
    202      18.7153      0.00000
    203      18.7825      0.00000
    204      18.8895      0.00000
    205      18.9176      0.00000
    206      19.0808      0.00000
    207      19.1536      0.00000
    208      19.1794      0.00000
    209      19.6447      0.00000

 k-point   3 :       0.2857    0.0000    0.0000
  band No.  band energies     occupation 
      1     -23.6130      2.00000
      2     -23.5239      2.00000
      3     -23.4976      2.00000
      4     -23.4976      2.00000
      5     -22.7849      2.00000
      6     -22.7829      2.00000
      7     -22.7746      2.00000
      8     -22.7710      2.00000
      9     -22.7646      2.00000
     10     -22.7574      2.00000
     11     -22.7341      2.00000
     12     -22.7296      2.00000
     13     -22.7121      2.00000
     14     -22.6798      2.00000
     15     -22.6777      2.00000
     16     -22.6702      2.00000
     17     -22.2471      2.00000
     18     -22.2432      2.00000
     19     -22.2426      2.00000
     20     -22.2270      2.00000
     21     -22.2139      2.00000
     22     -22.1900      2.00000
     23     -22.1891      2.00000
     24     -22.1879      2.00000
     25      -9.3730      2.00000
     26      -9.3035      2.00000
     27      -9.2848      2.00000
     28      -9.2836      2.00000
     29      -6.2699      2.00000
     30      -6.2646      2.00000
     31      -6.2267      2.00000
     32      -6.1241      2.00000
     33      -6.0989      2.00000
     34      -6.0912      2.00000
     35      -6.0429      2.00000
     36      -6.0418      2.00000
     37      -6.0197      2.00000
     38      -5.9746      2.00000
     39      -5.9407      2.00000
     40      -5.9353      2.00000
     41      -4.6346      2.00000
     42      -4.6222      2.00000
     43      -4.6176      2.00000
     44      -4.5807      2.00000
     45      -4.5385      2.00000
     46      -4.4905      2.00000
     47      -4.4699      2.00000
     48      -4.4322      2.00000
     49      -4.3973      2.00000
     50      -4.3489      2.00000
     51      -4.2862      2.00000
     52      -4.2513      2.00000
     53      -4.2111      2.00000
     54      -4.1906      2.00000
     55      -4.1291      2.00000
     56      -4.1174      2.00000
     57      -4.0979      2.00000
     58      -4.0082      2.00000
     59      -3.9678      2.00000
     60      -3.9327      2.00000
     61      -3.9246      2.00000
     62      -3.8993      2.00000
     63      -3.7647      2.00000
     64      -3.6221      2.00000
     65      -3.5752      2.00000
     66      -3.5605      2.00000
     67      -3.5260      2.00000
     68      -3.4984      2.00000
     69      -3.4739      2.00000
     70      -3.4433      2.00000
     71      -3.3962      2.00000
     72      -3.3816      2.00000
     73      -3.3809      2.00000
     74      -3.3420      2.00000
     75      -3.2932      2.00000
     76      -3.2737      2.00000
     77      -3.2436      2.00000
     78      -3.2207      2.00000
     79      -3.1947      2.00000
     80      -3.1620      2.00000
     81      -3.1419      2.00000
     82      -3.1393      2.00000
     83      -3.0971      2.00000
     84      -3.0884      2.00000
     85      -3.0701      2.00000
     86      -3.0391      2.00000
     87      -3.0235      2.00000
     88      -3.0030      2.00000
     89      -2.9883      2.00000
     90      -2.9849      2.00000
     91      -2.9413      2.00000
     92      -2.9101      2.00000
     93      -2.8825      2.00000
     94      -2.8741      2.00000
     95      -2.8485      2.00000
     96      -2.8034      2.00000
     97      -2.7452      2.00000
     98      -2.7408      2.00000
     99      -2.7316      2.00000
    100      -2.7027      2.00000
    101      -2.6908      2.00000
    102      -2.6538      2.00000
    103      -2.6174      2.00000
    104      -2.5885      2.00000
    105      -2.5861      2.00000
    106      -2.5673      2.00000
    107      -2.5608      2.00000
    108      -2.5505      2.00000
    109      -2.3517      2.00000
    110      -2.3321      2.00000
    111      -2.3078      2.00000
    112      -2.1858      2.00000
    113      -2.1613      2.00000
    114      -2.1308      2.00000
    115      -2.0761      2.00000
    116      -2.0740      2.00000
    117       1.7268      0.00000
    118       2.9277      0.00000
    119       3.1147      0.00000
    120       3.1149      0.00000
    121       4.7043      0.00000
    122       4.7974      0.00000
    123       4.8820      0.00000
    124       5.2715      0.00000
    125       7.1937      0.00000
    126       7.2914      0.00000
    127       7.3230      0.00000
    128       7.4714      0.00000
    129       7.4951      0.00000
    130       7.7629      0.00000
    131       7.7870      0.00000
    132       8.0056      0.00000
    133       8.0395      0.00000
    134       8.5221      0.00000
    135       8.5286      0.00000
    136       8.6296      0.00000
    137       9.1386      0.00000
    138       9.2037      0.00000
    139       9.3900      0.00000
    140       9.5285      0.00000
    141      10.0620      0.00000
    142      10.0635      0.00000
    143      10.1595      0.00000
    144      10.2129      0.00000
    145      10.6197      0.00000
    146      10.9755      0.00000
    147      11.1838      0.00000
    148      11.3090      0.00000
    149      11.6786      0.00000
    150      11.7782      0.00000
    151      11.9311      0.00000
    152      12.0304      0.00000
    153      12.3420      0.00000
    154      12.4654      0.00000
    155      12.5965      0.00000
    156      12.9383      0.00000
    157      12.9488      0.00000
    158      13.0577      0.00000
    159      13.0897      0.00000
    160      13.1457      0.00000
    161      13.2275      0.00000
    162      13.3381      0.00000
    163      13.4606      0.00000
    164      13.4856      0.00000
    165      13.4936      0.00000
    166      13.7171      0.00000
    167      13.7691      0.00000
    168      13.9596      0.00000
    169      14.0239      0.00000
    170      14.1618      0.00000
    171      14.3331      0.00000
    172      14.4718      0.00000
    173      14.5462      0.00000
    174      14.6915      0.00000
    175      15.0477      0.00000
    176      15.1630      0.00000
    177      15.2574      0.00000
    178      15.4207      0.00000
    179      15.6774      0.00000
    180      15.8718      0.00000
    181      15.8766      0.00000
    182      16.1940      0.00000
    183      16.2849      0.00000
    184      16.2950      0.00000
    185      16.5305      0.00000
    186      16.6481      0.00000
    187      16.8239      0.00000
    188      16.9212      0.00000
    189      16.9737      0.00000
    190      17.0678      0.00000
    191      17.2092      0.00000
    192      17.3264      0.00000
    193      17.6269      0.00000
    194      17.8836      0.00000
    195      17.9359      0.00000
    196      18.0122      0.00000
    197      18.0364      0.00000
    198      18.2809      0.00000
    199      18.4294      0.00000
    200      18.4828      0.00000
    201      18.5204      0.00000
    202      18.7307      0.00000
    203      18.7729      0.00000
    204      18.9919      0.00000
    205      19.0133      0.00000
    206      19.0884      0.00000
    207      19.1633      0.00000
    208      19.3067      0.00000
    209      19.7427      0.00000

 k-point   4 :       0.4286    0.0000    0.0000
  band No.  band energies     occupation 
      1     -23.5850      2.00000
      2     -23.5532      2.00000
      3     -23.4986      2.00000
      4     -23.4986      2.00000
      5     -22.7852      2.00000
      6     -22.7845      2.00000
      7     -22.7650      2.00000
      8     -22.7597      2.00000
      9     -22.7571      2.00000
     10     -22.7466      2.00000
     11     -22.7326      2.00000
     12     -22.7256      2.00000
     13     -22.7081      2.00000
     14     -22.7046      2.00000
     15     -22.6928      2.00000
     16     -22.6833      2.00000
     17     -22.2395      2.00000
     18     -22.2348      2.00000
     19     -22.2336      2.00000
     20     -22.2315      2.00000
     21     -22.2050      2.00000
     22     -22.1971      2.00000
     23     -22.1952      2.00000
     24     -22.1944      2.00000
     25      -9.3418      2.00000
     26      -9.3171      2.00000
     27      -9.2770      2.00000
     28      -9.2763      2.00000
     29      -6.3028      2.00000
     30      -6.3001      2.00000
     31      -6.2207      2.00000
     32      -6.1774      2.00000
     33      -6.1390      2.00000
     34      -6.1321      2.00000
     35      -6.0629      2.00000
     36      -6.0493      2.00000
     37      -6.0051      2.00000
     38      -6.0046      2.00000
     39      -5.9745      2.00000
     40      -5.9667      2.00000
     41      -4.6000      2.00000
     42      -4.5916      2.00000
     43      -4.5453      2.00000
     44      -4.4719      2.00000
     45      -4.4625      2.00000
     46      -4.4464      2.00000
     47      -4.4384      2.00000
     48      -4.4008      2.00000
     49      -4.3567      2.00000
     50      -4.3083      2.00000
     51      -4.2981      2.00000
     52      -4.2601      2.00000
     53      -4.2404      2.00000
     54      -4.2269      2.00000
     55      -4.1431      2.00000
     56      -4.1363      2.00000
     57      -4.0072      2.00000
     58      -3.9889      2.00000
     59      -3.9873      2.00000
     60      -3.9341      2.00000
     61      -3.9188      2.00000
     62      -3.8822      2.00000
     63      -3.7368      2.00000
     64      -3.7173      2.00000
     65      -3.6248      2.00000
     66      -3.5791      2.00000
     67      -3.5612      2.00000
     68      -3.5181      2.00000
     69      -3.4947      2.00000
     70      -3.4211      2.00000
     71      -3.4144      2.00000
     72      -3.3823      2.00000
     73      -3.3418      2.00000
     74      -3.3316      2.00000
     75      -3.2978      2.00000
     76      -3.2888      2.00000
     77      -3.2689      2.00000
     78      -3.2327      2.00000
     79      -3.2106      2.00000
     80      -3.1831      2.00000
     81      -3.1762      2.00000
     82      -3.1539      2.00000
     83      -3.1250      2.00000
     84      -3.1177      2.00000
     85      -3.0256      2.00000
     86      -3.0028      2.00000
     87      -2.9959      2.00000
     88      -2.9854      2.00000
     89      -2.9643      2.00000
     90      -2.9354      2.00000
     91      -2.9304      2.00000
     92      -2.8916      2.00000
     93      -2.8585      2.00000
     94      -2.8564      2.00000
     95      -2.7948      2.00000
     96      -2.7923      2.00000
     97      -2.7303      2.00000
     98      -2.7263      2.00000
     99      -2.7130      2.00000
    100      -2.7047      2.00000
    101      -2.6687      2.00000
    102      -2.6327      2.00000
    103      -2.6145      2.00000
    104      -2.6050      2.00000
    105      -2.6027      2.00000
    106      -2.5802      2.00000
    107      -2.5652      2.00000
    108      -2.5621      2.00000
    109      -2.3526      2.00000
    110      -2.3191      2.00000
    111      -2.2774      2.00000
    112      -2.2619      2.00000
    113      -2.2422      2.00000
    114      -2.1942      2.00000
    115      -2.1067      2.00000
    116      -2.1063      2.00000
    117       2.1319      0.00000
    118       2.5696      0.00000
    119       3.0782      0.00000
    120       3.0783      0.00000
    121       4.6412      0.00000
    122       4.6842      0.00000
    123       4.8755      0.00000
    124       5.0177      0.00000
    125       7.3171      0.00000
    126       7.3786      0.00000
    127       7.5487      0.00000
    128       7.5978      0.00000
[...]
y     0.0003   -0.0000    0.0001    0.0000    0.0000   -0.0000   -0.0000   -0.0000    0.0000    0.0000
y    -0.0000    0.0000    0.0000    0.0000   -0.0000    0.0000
z   181.3985   -0.0000   12.9922   -0.0000   16.6636   -0.0000   -4.3561    0.0000   -1.9532    0.0000
z     0.1904    0.0000    0.0474    0.0000    0.1276   -0.0000    0.0001    0.0000    0.0114   -0.0000
z     0.0003   -0.0000    0.0001    0.0000    0.0000   -0.0000   -0.0000   -0.0000    0.0000    0.0000
z    -0.0000    0.0000    0.0000    0.0000   -0.0000    0.0000
 total charge-density along one line
x   232.0000    0.0000   29.2021   -0.0000   33.3906    0.0000   -2.6497    0.0000   -4.1909    0.0000
x    -0.5402    0.0000    0.1646   -0.0000    0.0820    0.0000    0.0160    0.0000    0.0275    0.0000
x     0.0023    0.0000   -0.0019    0.0000    0.0017   -0.0000    0.0025   -0.0000   -0.0002   -0.0000
x    -0.0006    0.0000   -0.0010   -0.0000    0.0006   -0.0000   -0.0007   -0.0000   -0.0004   -0.0000
x     0.0003   -0.0000   -0.0003   -0.0000   -0.0001   -0.0000    0.0001   -0.0000    0.0002
y   232.0000    0.0000   29.2021    0.0000   33.3906    0.0000   -2.6497    0.0000   -4.1909   -0.0000
y    -0.5402    0.0000    0.1646   -0.0000    0.0820    0.0000    0.0160    0.0000    0.0275   -0.0000
y     0.0023    0.0000   -0.0019    0.0000    0.0017    0.0000    0.0025   -0.0000   -0.0002   -0.0000
y    -0.0006    0.0000   -0.0010   -0.0000    0.0006   -0.0000   -0.0007   -0.0000   -0.0004   -0.0000
y     0.0003   -0.0000   -0.0003   -0.0000   -0.0001   -0.0000    0.0001   -0.0000    0.0002
z   232.0000   -0.0000   29.2021   -0.0000   33.3906    0.0000   -2.6497    0.0000   -4.1909   -0.0000
z    -0.5402   -0.0000    0.1646    0.0000    0.0820    0.0000    0.0160   -0.0000    0.0275   -0.0000
z     0.0023    0.0000   -0.0019   -0.0000    0.0017    0.0000    0.0025   -0.0000   -0.0002    0.0000
z    -0.0006   -0.0000   -0.0010    0.0000    0.0006    0.0000   -0.0007    0.0000   -0.0004   -0.0000
z     0.0003   -0.0000   -0.0003    0.0000   -0.0001    0.0000    0.0001    0.0000    0.0002
 
 pseudopotential strength for first ion, spin component:           1
-14.184  -0.003   0.009  -0.003  -0.006   0.173  -0.001  -0.002
 -0.003 -14.184  -0.000   0.003  -0.011  -0.001   0.173  -0.001
  0.009  -0.000 -14.167   0.009   0.000  -0.002  -0.001   0.173
 -0.003   0.003   0.009 -14.184   0.005  -0.001   0.001  -0.001
 -0.006  -0.011   0.000   0.005 -14.167   0.000   0.001  -0.000
  0.173  -0.001  -0.002  -0.001   0.000   0.312  -0.001   0.000
 -0.001   0.173  -0.001   0.001   0.001  -0.001   0.312  -0.000
 -0.002  -0.001   0.173  -0.001  -0.000   0.000  -0.000   0.313
 -0.001   0.001  -0.001   0.173  -0.001  -0.001   0.001   0.001
  0.000   0.001  -0.000  -0.001   0.173  -0.000  -0.001   0.000
  0.002  -0.002   0.000  -0.002   0.000  -0.000   0.000  -0.000
 -0.000   0.000  -0.000   0.000  -0.000   0.000  -0.000   0.000
 -0.000   0.000   0.000  -0.000   0.000   0.000  -0.000  -0.000
 -0.000  -0.000   0.000  -0.000   0.000   0.000   0.000  -0.000
 -0.000  -0.000   0.000   0.000  -0.000   0.000   0.000  -0.000
  0.000  -0.000  -0.000   0.000  -0.000  -0.000   0.000   0.000
  0.000   0.000  -0.000   0.000  -0.000  -0.000  -0.000   0.000
  0.000   0.000  -0.000  -0.000   0.000  -0.000  -0.000   0.000
 total augmentation occupancy for first ion, spin component:           1
  2.083   0.003  -0.000   0.004   0.001   0.130  -0.012  -0.001  -0.012  -0.009   0.039  -0.001  -0.000  -0.000  -0.000  -0.000
  0.003   2.083   0.001  -0.003   0.001  -0.012   0.130  -0.008   0.012  -0.003  -0.040   0.001  -0.000   0.000   0.000  -0.000
 -0.000   0.001   2.078  -0.001  -0.000  -0.001  -0.008   0.151   0.007   0.000  -0.000   0.000   0.000   0.000   0.000   0.000
  0.004  -0.003  -0.001   2.083   0.001  -0.012   0.012   0.007   0.130  -0.006  -0.039   0.001   0.000  -0.000   0.000   0.000
  0.001   0.001  -0.000   0.001   2.078  -0.009  -0.003   0.000  -0.006   0.151  -0.000   0.000  -0.000  -0.000  -0.000  -0.000
  0.130  -0.012  -0.001  -0.012  -0.009   0.067   0.016   0.001   0.016   0.014  -0.020   0.021  -0.000  -0.000  -0.000  -0.000
 -0.012   0.130  -0.008   0.012  -0.003   0.016   0.067   0.013  -0.016   0.006   0.019  -0.021  -0.000  -0.000   0.000  -0.000
 -0.001  -0.008   0.151   0.007   0.000   0.001   0.013   0.031  -0.012   0.000  -0.000   0.000   0.000   0.000   0.000   0.000
 -0.012   0.012   0.007   0.130  -0.006   0.016  -0.016  -0.012   0.067   0.008   0.019  -0.021   0.000  -0.000  -0.000   0.000
 -0.009  -0.003   0.000  -0.006   0.151   0.014   0.006   0.000   0.008   0.031  -0.000  -0.000  -0.000  -0.000  -0.000  -0.000
  0.039  -0.040  -0.000  -0.039  -0.000  -0.020   0.019  -0.000   0.019  -0.000   0.145  -0.124   0.000  -0.000  -0.000  -0.000
 -0.001   0.001   0.000   0.001   0.000   0.021  -0.021   0.000  -0.021  -0.000  -0.124   0.119   0.000  -0.000  -0.000   0.000
 -0.000  -0.000   0.000   0.000  -0.000  -0.000  -0.000   0.000   0.000  -0.000   0.000   0.000   0.019   0.004  -0.004  -0.002
 -0.000   0.000   0.000  -0.000  -0.000  -0.000  -0.000   0.000  -0.000  -0.000  -0.000  -0.000   0.004   0.020   0.004  -0.001
 -0.000   0.000   0.000   0.000  -0.000  -0.000   0.000   0.000  -0.000  -0.000  -0.000  -0.000  -0.004   0.004   0.020   0.001
 -0.000  -0.000   0.000   0.000  -0.000  -0.000  -0.000   0.000   0.000  -0.000  -0.000   0.000  -0.002  -0.001   0.001   0.000
 -0.000   0.000   0.000  -0.000  -0.000  -0.000  -0.000   0.000  -0.000  -0.000   0.000  -0.000  -0.001  -0.002  -0.001   0.000
 -0.000  -0.000   0.000   0.000  -0.000   0.000  -0.000   0.000  -0.000  -0.000  -0.000   0.000   0.001  -0.001  -0.002  -0.000


------------------------ aborting loop because EDIFF is reached ----------------------------------------


 


 total charge     
 
# of ion     s       p       d       tot
----------------------------------------
  1        0.052   0.039   9.470   9.561
  2        0.052   0.039   9.467   9.558
  3        0.052   0.039   9.468   9.559
  4        0.052   0.039   9.467   9.558
  5        1.743   4.339   0.000   6.082
  6        1.743   4.337   0.000   6.080
  7        1.743   4.339   0.000   6.082
  8        1.743   4.338   0.000   6.081
  9        1.743   4.338   0.000   6.081
 10        1.743   4.337   0.000   6.080
 11        1.743   4.338   0.000   6.082
 12        1.743   4.339   0.000   6.082
 13        1.743   4.338   0.000   6.081
 14        1.743   4.336   0.000   6.079
 15        1.743   4.340   0.000   6.083
 16        1.743   4.339   0.000   6.082
 17        1.743   4.339   0.000   6.082
 18        1.743   4.337   0.000   6.080
 19        1.743   4.339   0.000   6.082
 20        1.743   4.338   0.000   6.081
 21        1.743   4.338   0.000   6.081
 22        1.743   4.337   0.000   6.080
 23        1.743   4.338   0.000   6.082
 24        1.743   4.339   0.000   6.082
 25        1.743   4.338   0.000   6.081
 26        1.743   4.336   0.000   6.079
 27        1.743   4.340   0.000   6.083
 28        1.743   4.339   0.000   6.082
 29        0.876   0.979   0.301   2.156
 30        0.879   0.977   0.301   2.157
 31        0.878   0.978   0.301   2.157
 32        0.879   0.977   0.301   2.157
------------------------------------------------
tot       45.553 108.182  39.078 192.812
 


--------------------------------------------------------------------------------------------------------


    CHARGE:  VPU time   42.56: CPU time   42.60
    FORLOC:  VPU time    0.17: CPU time    0.17
    FORNL :  VPU time  183.68: CPU time  183.81
    STRESS:  VPU time  398.66: CPU time  399.18
    FORCOR:  VPU time    0.77: CPU time    0.77
    FORHAR:  VPU time    0.36: CPU time    0.36
    MIXING:  VPU time    0.04: CPU time    0.04


--------------------------------------------------------------------------------------------------------



  FREE ENERGIE OF THE ION-ELECTRON SYSTEM (eV)
  ---------------------------------------------------
  free  energy   TOTEN  =      -131.167433 eV

  energy  without entropy=     -131.167433  energy(sigma->0) =     -131.167433
 

  FORCE on cell =-STRESS in cart. coord.  units (eV/reduce length):
  Direction    X        Y        Z        XY       YZ       ZX
  --------------------------------------------------------------------------------------
  Alpha Z    560.07    560.07    560.07
  Ewald    -4532.21  -4532.21  -4532.21     -0.00     -0.00     -0.00
  Hartree   2309.29   2309.29   2309.29     -0.00     -0.00     -0.00
  E(xc)    -1281.20  -1281.20  -1281.20     -0.00     -0.00     -0.00
  Local    -1224.04  -1224.04  -1224.04     -0.00     -0.00     -0.00
  n-local   -990.58   -990.59   -990.58      0.03     -0.06     -0.03
  augment    543.73    543.73    543.73      0.00      0.00      0.00
  Kinetic   4615.26   4615.27   4615.25     -0.09      0.22      0.13
  -------------------------------------------------------------------------------------
  Total        0.30      0.30      0.30     -0.00      0.00      0.00
  in kB        0.98      0.98      0.98     -0.00      0.00      0.00
  external pressure =        0.98 kB  Pullay stress =        0.00 kB


 VOLUME and BASIS-vectors are now :
 -----------------------------------------------------------------------------
  energy-cutoff  :      560.00
  volume of cell :      496.95
      direct lattice vectors                 reciprocal lattice vectors
    -4.989816426  4.989816426  4.989816426     0.000000000  0.100204087  0.100204087
     4.989816426 -4.989816426  4.989816426     0.100204087  0.000000000  0.100204087
     4.989816426  4.989816426 -4.989816426     0.100204087  0.100204087  0.000000000

  length of vectors
     8.642615570  8.642615570  8.642615570     0.141709979  0.141709979  0.141709979


 FORCES acting on ions
    electron-ion (+dipol)            ewald-force                    non-local-force                 convergence-correction
 -----------------------------------------------------------------------------------------------
   0.706E-12 0.207E-12 -.674E-12   -.523E-13 0.252E-13 -.596E-13   0.951E-23 0.786E-23 0.207E-23   -.582E-13 0.145E-13 -.712E-13
   -.162E-12 0.215E-12 0.367E-12   0.327E-13 -.308E-14 0.839E-13   0.662E-23 -.165E-23 0.149E-22   -.125E-12 0.449E-13 -.943E-13
   0.763E-12 0.362E-12 0.236E-12   0.582E-13 0.295E-13 -.457E-13   0.000E+00 0.000E+00 0.000E+00   0.322E-13 -.127E-12 0.338E-14
   0.483E-12 -.683E-12 0.247E-12   -.417E-13 -.424E-13 -.232E-13   -.182E-22 0.132E-22 0.993E-23   -.743E-13 0.822E-13 -.427E-13
   -.596E+02 -.468E+02 -.460E+01   0.835E+02 0.646E+02 0.125E+02   -.239E+02 -.179E+02 -.786E+01   -.100E-03 -.769E-04 0.356E-04
   0.596E+02 0.468E+02 -.460E+01   -.835E+02 -.646E+02 0.125E+02   0.239E+02 0.179E+02 -.786E+01   0.104E-03 0.788E-04 0.412E-04
   -.596E+02 0.468E+02 0.460E+01   0.835E+02 -.646E+02 -.125E+02   -.239E+02 0.179E+02 0.786E+01   -.108E-03 0.800E-04 -.480E-04
   0.596E+02 -.468E+02 0.460E+01   -.835E+02 0.646E+02 -.125E+02   0.239E+02 -.179E+02 0.786E+01   0.996E-04 -.792E-04 -.365E-04
   -.468E+02 0.460E+01 0.596E+02   0.646E+02 -.125E+02 -.835E+02   -.179E+02 0.786E+01 0.239E+02   -.799E-04 -.480E-04 0.108E-03
   0.468E+02 0.460E+01 -.596E+02   -.646E+02 -.125E+02 0.835E+02   0.179E+02 0.786E+01 -.239E+02   0.793E-04 -.366E-04 -.995E-04
   0.468E+02 -.460E+01 0.596E+02   -.646E+02 0.125E+02 -.835E+02   0.179E+02 -.786E+01 0.239E+02   0.767E-04 0.363E-04 0.100E-03
   -.468E+02 -.460E+01 -.596E+02   0.646E+02 0.125E+02 0.835E+02   -.179E+02 -.786E+01 -.239E+02   -.790E-04 0.405E-04 -.104E-03
   0.460E+01 -.596E+02 0.468E+02   -.125E+02 0.835E+02 -.646E+02   0.786E+01 -.239E+02 0.179E+02   -.409E-04 -.103E-03 0.786E-04
   0.460E+01 0.596E+02 -.468E+02   -.125E+02 -.835E+02 0.646E+02   0.786E+01 0.239E+02 -.179E+02   -.360E-04 0.100E-03 -.763E-04
   -.460E+01 -.596E+02 -.468E+02   0.125E+02 0.835E+02 0.646E+02   -.786E+01 -.239E+02 -.179E+02   0.362E-04 -.100E-03 -.797E-04
   -.460E+01 0.596E+02 0.468E+02   0.125E+02 -.835E+02 -.646E+02   -.786E+01 0.239E+02 0.179E+02   0.483E-04 0.108E-03 0.802E-04
   0.596E+02 0.468E+02 0.460E+01   -.835E+02 -.646E+02 -.125E+02   0.239E+02 0.179E+02 0.786E+01   0.100E-03 0.769E-04 -.356E-04
   -.596E+02 -.468E+02 0.460E+01   0.835E+02 0.646E+02 -.125E+02   -.239E+02 -.179E+02 0.786E+01   -.104E-03 -.788E-04 -.412E-04
   0.596E+02 -.468E+02 -.460E+01   -.835E+02 0.646E+02 0.125E+02   0.239E+02 -.179E+02 -.786E+01   0.108E-03 -.800E-04 0.480E-04
   -.596E+02 0.468E+02 -.460E+01   0.835E+02 -.646E+02 0.125E+02   -.239E+02 0.179E+02 -.786E+01   -.996E-04 0.792E-04 0.365E-04
   0.468E+02 -.460E+01 -.596E+02   -.646E+02 0.125E+02 0.835E+02   0.179E+02 -.786E+01 -.239E+02   0.799E-04 0.480E-04 -.108E-03
   -.468E+02 -.460E+01 0.596E+02   0.646E+02 0.125E+02 -.835E+02   -.179E+02 -.786E+01 0.239E+02   -.793E-04 0.366E-04 0.995E-04
   -.468E+02 0.460E+01 -.596E+02   0.646E+02 -.125E+02 0.835E+02   -.179E+02 0.786E+01 -.239E+02   -.767E-04 -.363E-04 -.100E-03
   0.468E+02 0.460E+01 0.596E+02   -.646E+02 -.125E+02 -.835E+02   0.179E+02 0.786E+01 0.239E+02   0.790E-04 -.405E-04 0.104E-03
   -.460E+01 0.596E+02 -.468E+02   0.125E+02 -.835E+02 0.646E+02   -.786E+01 0.239E+02 -.179E+02   0.409E-04 0.103E-03 -.786E-04
   -.460E+01 -.596E+02 0.468E+02   0.125E+02 0.835E+02 -.646E+02   -.786E+01 -.239E+02 0.179E+02   0.360E-04 -.100E-03 0.763E-04
   0.460E+01 0.596E+02 0.468E+02   -.125E+02 -.835E+02 -.646E+02   0.786E+01 0.239E+02 0.179E+02   -.362E-04 0.100E-03 0.797E-04
   0.460E+01 -.596E+02 -.468E+02   -.125E+02 0.835E+02 0.646E+02   0.786E+01 -.239E+02 -.179E+02   -.483E-04 -.108E-03 -.802E-04
   -.225E-12 0.397E-13 0.101E-13   -.106E-13 -.262E-13 -.155E-13   -.219E-22 -.252E-22 0.285E-22   0.197E-13 -.981E-14 -.901E-14
   -.605E-13 0.204E-12 0.312E-12   -.285E-13 0.196E-13 -.634E-13   0.177E-22 0.111E-22 0.874E-23   -.128E-13 0.934E-14 0.266E-13
   0.176E-13 -.356E-12 0.182E-12   -.115E-12 -.211E-13 -.198E-13   0.000E+00 0.265E-22 0.265E-22   -.550E-14 -.104E-13 -.180E-13
   -.223E-12 0.190E-12 -.359E-12   -.243E-13 0.291E-13 -.122E-12   0.265E-22 0.662E-23 0.662E-23   0.136E-13 -.123E-13 0.538E-14
 -----------------------------------------------------------------------------------------------
   0.170E-10 0.110E-10 0.752E-11   -.186E-12 0.101E-12 -.502E-13   -.711E-14 -.711E-14 -.355E-14   -.205E-11 -.445E-12 -.358E-12
 
 
 POSITION                                       TOTAL-FORCE (eV/Angst)
 -----------------------------------------------------------------------------------
      2.49491      2.49491     -2.49491         0.000000      0.000000      0.000000
     -2.49491      2.49491      2.49491         0.000000     -0.000000     -0.000000
      2.49491      2.49491      2.49491         0.000000     -0.000000     -0.000000
      2.49491     -2.49491      2.49491         0.000000     -0.000000      0.000000
      1.42932      1.13008      0.61441        -0.009061      0.021736      0.005943
     -1.42932      3.85973      5.60422         0.009061     -0.021736      0.005943
      1.42932      3.85973     -0.61441        -0.009061     -0.021736     -0.005943
      3.56049      6.11990     -0.61441         0.009061      0.021736     -0.005943
      1.13008     -0.61441      8.55031         0.021736     -0.005943      0.009061
      3.85973      4.37541      1.42932        -0.021736     -0.005943     -0.009061
     -1.13008      5.60422      3.56049        -0.021736      0.005943      0.009061
      1.13008      5.60422      1.42932         0.021736      0.005943     -0.009061
      4.37541     -3.56049      3.85973        -0.005943     -0.009061     -0.021736
     -0.61441      3.56049      1.13008        -0.005943      0.009061      0.021736
      0.61441      1.42932      6.11990         0.005943     -0.009061      0.021736
      0.61441      3.56049      3.85973         0.005943      0.009061     -0.021736
      3.56049      3.85973      4.37541         0.009061     -0.021736     -0.005943
      6.41914      1.13008     -0.61441        -0.009061      0.021736     -0.005943
      3.56049      1.13008      5.60422         0.009061      0.021736      0.005943
      1.42932     -1.13008      5.60422        -0.009061     -0.021736      0.005943
      3.85973      5.60422     -3.56049        -0.021736      0.005943     -0.009061
      1.13008      0.61441      3.56049         0.021736      0.005943      0.009061
      6.11990     -0.61441      1.42932         0.021736     -0.005943     -0.009061
      3.85973     -0.61441      3.56049        -0.021736     -0.005943      0.009061
      0.61441      8.55031      1.13008         0.005943      0.009061      0.021736
      5.60422      1.42932      3.85973         0.005943     -0.009061     -0.021736
      4.37541      3.56049     -1.13008        -0.005943      0.009061     -0.021736
      4.37541      1.42932      1.13008        -0.005943     -0.009061      0.021736
      0.00000      0.00000      0.00000         0.000000     -0.000000      0.000000
      4.98982      0.00000      0.00000        -0.000000      0.000000     -0.000000
      0.00000      4.98982      0.00000        -0.000000     -0.000000     -0.000000
      0.00000      0.00000      4.98982        -0.000000      0.000000      0.000000
 -----------------------------------------------------------------------------------
    total drift:                                0.000000      0.000000      0.000000


--------------------------------------------------------------------------------------------------------



 mean value of Nose-termostat <S>:     1.000 mean value of <T> :     0.000
 mean temperature <T/S>/<1/S>  :     0.000

     LOOP+:  VPU time13111.30: CPU time13132.26
 


 total charge     
 
# of ion     s       p       d       tot
----------------------------------------
  1        0.052   0.039   9.470   9.561
  2        0.052   0.039   9.467   9.558
  3        0.052   0.039   9.468   9.559
  4        0.052   0.039   9.467   9.558
  5        1.743   4.339   0.000   6.082
  6        1.743   4.337   0.000   6.080
  7        1.743   4.339   0.000   6.082
  8        1.743   4.338   0.000   6.081
  9        1.743   4.338   0.000   6.081
 10        1.743   4.337   0.000   6.080
 11        1.743   4.338   0.000   6.082
 12        1.743   4.339   0.000   6.082
 13        1.743   4.338   0.000   6.081
 14        1.743   4.336   0.000   6.079
 15        1.743   4.340   0.000   6.083
 16        1.743   4.339   0.000   6.082
 17        1.743   4.339   0.000   6.082
 18        1.743   4.337   0.000   6.080
 19        1.743   4.339   0.000   6.082
 20        1.743   4.338   0.000   6.081
 21        1.743   4.338   0.000   6.081
 22        1.743   4.337   0.000   6.080
 23        1.743   4.338   0.000   6.082
 24        1.743   4.339   0.000   6.082
 25        1.743   4.338   0.000   6.081
 26        1.743   4.336   0.000   6.079
 27        1.743   4.340   0.000   6.083
 28        1.743   4.339   0.000   6.082
 29        0.876   0.979   0.301   2.156
 30        0.879   0.977   0.301   2.157
 31        0.878   0.978   0.301   2.157
 32        0.879   0.977   0.301   2.157
------------------------------------------------
tot       45.553 108.182  39.078 192.812
 
 BZINTS: Fermi energy: -2.030656;232.000000 electrons
         Band energy:***********;  BLOECHL correction:  0.000000
  
  
 General timing and accounting informations for this job:
 ========================================================
  
                  Total CPU time used (sec):    13206.960
                            User time (sec):    13001.303
                          System time (sec):      205.658
                         Elapsed time (sec):    13232.628
  
                   Maximum memory used (kb):     1569296.
                   Average memory used (kb):           0.
  
                          Minor page faults:     12628202
                          Major page faults:            0
                 Voluntary context switches:         2379
