 vasp.4.6.35 3Apr08 complex 
 executed on             LinuxIFC date 2014.05.13  18:06:03
 serial version


--------------------------------------------------------------------------------------------------------


 INCAR:
 POTCAR:   PAW_PBE Ag 06Sep2000                   
 POTCAR:   PAW_PBE F 08Apr2002                    
 POTCAR:   PAW_PBE Sb 06Sep2000                   
 POTCAR:   PAW_PBE Ag 06Sep2000                   
   VRHFIN =Ag : s1 d10                                                          
   LEXCH  = PE                                                                  
   EATOM  =  1037.4134 eV,   76.2477 Ry                                         
                                                                                
   TITEL  = PAW_PBE Ag 06Sep2000                                                
   LULTRA =        F    use ultrasoft PP ?                                      
   IUNSCR =        1    unscreen: 0-lin 1-nonlin 2-no                           
   RPACOR =    2.000    partial core radius                                     
   POMASS =  107.868; ZVAL   =   11.000    mass and valenz                      
   RCORE  =    2.400    outmost cutoff radius                                   
   RWIGS  =    2.840; RWIGS  =    1.503    wigner-seitz radius (au A)           
   ENMAX  =  249.846; ENMIN  =  187.385 eV                                      
   RCLOC  =    1.962    cutoff for local pot                                    
   LCOR   =        T    correct aug charges                                     
   LPAW   =        T    paw PP                                                  
   EAUG   =  412.496                                                            
   DEXC   =    -.047                                                            
   RMAX   =    2.917    core radius for proj-oper                               
   RAUG   =    1.300    factor for augmentation sphere                          
   RDEP   =    2.416    radius for radial grids                                 
   QCUT   =   -4.285; QGAM   =    8.570    optimization parameters              
                                                                                
   Description                                                                  
     l     E      TYP  RCUT    TYP  RCUT                                        
     2   .000     23  2.400                                                     
     2   .000     23  2.400                                                     
     0   .000     23  2.400                                                     
     0   .000     23  2.400                                                     
     1  -.200     23  2.400                                                     
     1  1.500     23  2.400                                                     
     3   .000      7   .000                                                     
  local pseudopotential read in
  partial core-charges read in
  atomic valenz-charges read in
  non local Contribution for L=           2  read in
    real space projection operators read in
  non local Contribution for L=           2  read in
    real space projection operators read in
  non local Contribution for L=           0  read in
    real space projection operators read in
  non local Contribution for L=           0  read in
    real space projection operators read in
  non local Contribution for L=           1  read in
    real space projection operators read in
  non local Contribution for L=           1  read in
    real space projection operators read in
    PAW grid and wavefunctions read in
 
   number of l-projection  operators is LMAX  =           6
   number of lm-projection operators is LMMAX =          18
 
 POTCAR:   PAW_PBE F 08Apr2002                    
   VRHFIN =F: s2p5                                                              
   LEXCH  = PE                                                                  
   EATOM  =   659.4942 eV,   48.4715 Ry                                         
                                                                                
   TITEL  = PAW_PBE F 08Apr2002                                                 
   LULTRA =        F    use ultrasoft PP ?                                      
   IUNSCR =        0    unscreen: 0-lin 1-nonlin 2-no                           
   RPACOR =     .000    partial core radius                                     
   POMASS =   18.998; ZVAL   =    7.000    mass and valenz                      
   RCORE  =    1.520    outmost cutoff radius                                   
   RWIGS  =    1.500; RWIGS  =     .794    wigner-seitz radius (au A)           
   ENMAX  =  400.000; ENMIN  =  300.000 eV                                      
   ICORE  =        2    local potential                                         
   LCOR   =        T    correct aug charges                                     
   LPAW   =        T    paw PP                                                  
   EAUG   =  613.614                                                            
   DEXC   =     .000                                                            
   RMAX   =    2.254    core radius for proj-oper                               
   RAUG   =    1.300    factor for augmentation sphere                          
   RDEP   =    1.539    radius for radial grids                                 
   QCUT   =   -5.545; QGAM   =   11.091    optimization parameters              
                                                                                
   Description                                                                  
     l     E      TYP  RCUT    TYP  RCUT                                        
     0   .000     23  1.200                                                     
     0  -.700     23  1.200                                                     
     1   .000     23  1.520                                                     
     1   .100     23  1.520                                                     
     2   .000      7  1.500                                                     
  local pseudopotential read in
  atomic valenz-charges read in
  non local Contribution for L=           0  read in
    real space projection operators read in
  non local Contribution for L=           0  read in
    real space projection operators read in
  non local Contribution for L=           1  read in
    real space projection operators read in
  non local Contribution for L=           1  read in
    real space projection operators read in
    PAW grid and wavefunctions read in
 
   number of l-projection  operators is LMAX  =           4
   number of lm-projection operators is LMMAX =           8
 
 POTCAR:   PAW_PBE Sb 06Sep2000                   
   VRHFIN =Sb: s2p3                                                             
   LEXCH  = PE                                                                  
   EATOM  =   149.8037 eV,   11.0103 Ry                                         
                                                                                
   TITEL  = PAW_PBE Sb 06Sep2000                                                
   LULTRA =        F    use ultrasoft PP ?                                      
   IUNSCR =        1    unscreen: 0-lin 1-nonlin 2-no                           
   RPACOR =    2.200    partial core radius                                     
   POMASS =  121.750; ZVAL   =    5.000    mass and valenz                      
   RCORE  =    2.300    outmost cutoff radius                                   
   RWIGS  =    2.980; RWIGS  =    1.577    wigner-seitz radius (au A)           
   ENMAX  =  172.037; ENMIN  =  129.028 eV                                      
   ICORE  =        3    local potential                                         
   LCOR   =        T    correct aug charges                                     
   LPAW   =        T    paw PP                                                  
   EAUG   =  380.513                                                            
   DEXC   =    -.415                                                            
   RMAX   =    3.515    core radius for proj-oper                               
   RAUG   =    1.300    factor for augmentation sphere                          
   RDEP   =    2.360    radius for radial grids                                 
   QCUT   =   -3.556; QGAM   =    7.112    optimization parameters              
                                                                                
   Description                                                                  
     l     E      TYP  RCUT    TYP  RCUT                                        
     0   .000     23  2.300                                                     
     0  1.000     23  2.300                                                     
     1   .000     23  2.300                                                     
     1   .000     23  2.300                                                     
     2   .000     23  2.300                                                     
     3  -.100     23  2.300                                                     
  local pseudopotential read in
  partial core-charges read in
  atomic valenz-charges read in
  non local Contribution for L=           0  read in
    real space projection operators read in
  non local Contribution for L=           0  read in
    real space projection operators read in
  non local Contribution for L=           1  read in
    real space projection operators read in
  non local Contribution for L=           1  read in
    real space projection operators read in
  non local Contribution for L=           2  read in
    real space projection operators read in
    PAW grid and wavefunctions read in
 
   number of l-projection  operators is LMAX  =           5
   number of lm-projection operators is LMMAX =          13
 

 ----------------------------------------------------------------------------- 
|                                                                             |
|  ADVICE TO THIS USER RUNNING 'VASP/VAMP'   (HEAR YOUR MASTER'S VOICE ...):  |
|                                                                             |
|      You have a (more or less) 'large supercell' and for larger cells       |
|      it might be more efficient to use real space projection operators      |
|      So try LREAL= Auto  in the INCAR   file.                               |
|      Mind: If you want to do an extremely accurate calculations keep the    |
|      reciprocal projection scheme          (i.e. LREAL=.FALSE.)             |
|                                                                             |
 ----------------------------------------------------------------------------- 

 PAW_PBE Ag 06Sep2000                   :
 energy of atom  1       EATOM=-1037.4134
 kinetic energy error for atom=    0.0032 (will be added to EATOM!!)
 PAW_PBE F 08Apr2002                    :
 energy of atom  2       EATOM= -659.4942
 kinetic energy error for atom=    0.0290 (will be added to EATOM!!)
 PAW_PBE Sb 06Sep2000                   :
 energy of atom  3       EATOM= -149.8037
 kinetic energy error for atom=    0.0004 (will be added to EATOM!!)
 
 EXHCAR: internal setup
 exchange correlation table for  LEXCH =        8
   RHO(1)=    0.500       N(1)  =     2000
   RHO(2)=  100.500       N(2)  =     4000
 
 POSCAR: Ag1F6Sb1   [BCC,BCC,cI64] (STD_PRIM doi:
  positions in direct lattice
  No initial velocities read in
 


--------------------------------------------------------------------------------------------------------


 ion  position               nearest neighbor table
   1  0.500  0.000  0.000-  17 2.56  13 2.56   9 2.56  21 2.56  25 2.56   5 2.56
   2  0.500  0.500  0.500-  16 2.56  28 2.56  23 2.56  11 2.56  18 2.56   6 2.56
   3  0.000  0.500  0.000-  12 2.56  24 2.56  14 2.56  19 2.56   7 2.56  26 2.56
   4  0.000  0.000  0.500-   8 2.56  15 2.56  20 2.56  27 2.56  22 2.56  10 2.56
   5  0.528  0.080  0.324-  30 1.92   1 2.56
   6  0.256  0.204  0.176-  29 1.92   2 2.56
   7  0.244  0.420  0.948-  32 1.92   3 2.56
   8  0.972  0.296  0.552-  31 1.92   4 2.56
   9  0.448  0.244  0.920-  32 1.92   1 2.56
  10  0.052  0.972  0.796-  29 1.92   4 2.56
  11  0.824  0.528  0.580-  31 1.92   2 2.56
  12  0.676  0.256  0.704-  30 1.92   3 2.56
  13  0.204  0.676  0.756-  31 1.92   1 2.56
  14  0.080  0.824  0.028-  29 1.92   3 2.56
  15  0.296  0.052  0.472-  30 1.92   4 2.56
  16  0.420  0.448  0.744-  32 1.92   2 2.56
  17  0.472  0.920  0.676-  30 1.92   1 2.56
  18  0.744  0.796  0.824-  29 1.92   2 2.56
  19  0.756  0.580  0.052-  32 1.92   3 2.56
  20  0.028  0.704  0.448-  31 1.92   4 2.56
  21  0.552  0.756  0.080-  32 1.92   1 2.56
  22  0.948  0.028  0.204-  29 1.92   4 2.56
  23  0.176  0.472  0.420-  31 1.92   2 2.56
  24  0.324  0.744  0.296-  30 1.92   3 2.56
  25  0.796  0.324  0.244-  31 1.92   1 2.56
  26  0.920  0.176  0.972-  29 1.92   3 2.56
  27  0.704  0.948  0.528-  30 1.92   4 2.56
  28  0.580  0.552  0.256-  32 1.92   2 2.56
  29  0.000  0.000  0.000-  26 1.92  22 1.92  10 1.92   6 1.92  18 1.92  14 1.92
  30  0.500  0.000  0.500-   5 1.92  15 1.92  27 1.92  17 1.92  24 1.92  12 1.92
  31  0.000  0.500  0.500-  25 1.92  13 1.92  23 1.92  11 1.92   8 1.92  20 1.92
  32  0.500  0.500  0.000-   7 1.92   9 1.92  19 1.92  21 1.92  16 1.92  28 1.92
 
  LATTYP: Found a body centered cubic cell.
 ALAT       =     9.9857809235
  
  Lattice vectors:
  
 A1 = (  -4.9928904617,   4.9928904617,   4.9928904617)
 A2 = (   4.9928904617,  -4.9928904617,   4.9928904617)
 A3 = (   4.9928904617,   4.9928904617,  -4.9928904617)
 Subroutine PRICEL returns:
 Original cell was already a primitive cell.
 

Analysis of symmetry for initial positions (statically):

 Routine SETGRP: Setting up the symmetry group for a 
 body centered cubic supercell.


 Subroutine GETGRP returns: Found 24 space group operations
 (whereof  6 operations were pure point group operations)
 out of a pool of 48 trial point group operations.


The static configuration has the point symmetry S_6 .
 The point group associated with its full space group is T_h .

Analysis of symmetry for dynamics (positions and initial velocities):

 Subroutine DYNSYM returns: Found 24 space group operations
 (whereof  6 operations were pure point group operations)
 out of a pool of 24 trial space group operations
 (whereof  6 operations were pure point group operations)
 and found also     1 'primitive' translations


The dynamic configuration has the point symmetry S_6 .
 The point group associated with its full space group is T_h .
 
 
 KPOINTS: KPOINTS File, automatically generated by

Automatic generation of k-mesh.
 
 Subroutine IBZKPT returns following result:
 ===========================================
 
 Found     24 irreducible k-points:
 
 Following reciprocal coordinates:
            Coordinates               Weight
  0.000000  0.000000  0.000000      1.000000
  0.142857  0.000000  0.000000     12.000000
  0.285714  0.000000  0.000000     12.000000
  0.428571  0.000000  0.000000     12.000000
  0.142857  0.142857  0.000000     24.000000
  0.285714  0.142857  0.000000     24.000000
  0.428571  0.142857  0.000000     24.000000
 -0.428571  0.142857  0.000000     24.000000
  0.285714  0.285714  0.000000     24.000000
  0.142857  0.142857  0.142857      8.000000
  0.285714  0.142857  0.142857     24.000000
 -0.142857  0.142857  0.142857      6.000000
  0.285714  0.285714  0.142857      8.000000
 -0.285714  0.285714  0.142857     12.000000
 -0.142857  0.285714  0.142857     12.000000
 -0.428571  0.428571  0.142857     12.000000
 -0.285714  0.428571  0.142857     24.000000
 -0.142857  0.428571  0.142857     12.000000
 -0.428571 -0.428571  0.142857     24.000000
 -0.285714  0.285714  0.285714      6.000000
 -0.428571  0.428571  0.285714     12.000000
 -0.285714  0.428571  0.285714     12.000000
 -0.428571 -0.428571  0.285714      8.000000
 -0.428571  0.428571  0.428571      6.000000
 
 Following cartesian coordinates:
            Coordinates               Weight
  0.000000  0.000000  0.000000      1.000000
  0.000000  0.014306  0.014306     12.000000
  0.000000  0.028612  0.028612     12.000000
  0.000000  0.042918  0.042918     12.000000
  0.014306  0.014306  0.028612     24.000000
  0.014306  0.028612  0.042918     24.000000
  0.014306  0.042918  0.057224     24.000000
  0.014306 -0.042918 -0.028612     24.000000
  0.028612  0.028612  0.057224     24.000000
  0.028612  0.028612  0.028612      8.000000
  0.028612  0.042918  0.042918     24.000000
  0.028612  0.000000  0.000000      6.000000
  0.042918  0.042918  0.057224      8.000000
  0.042918 -0.014306  0.000000     12.000000
  0.042918  0.000000  0.014306     12.000000
  0.057224 -0.028612  0.000000     12.000000
  0.057224 -0.014306  0.014306     24.000000
  0.057224  0.000000  0.028612     12.000000
 -0.028612 -0.028612 -0.085836     24.000000
  0.057224  0.000000  0.000000      6.000000
  0.071530 -0.014306  0.000000     12.000000
  0.071530  0.000000  0.014306     12.000000
 -0.014306 -0.014306 -0.085836      8.000000
  0.085836  0.000000  0.000000      6.000000
 
 TETIRR: Found    606 inequivalent tetrahedra from     2058


--------------------------------------------------------------------------------------------------------




 Dimension of arrays:
   k-Points           NKPTS =     24   number of bands    NBANDS=    209
   number of dos      NEDOS =   5000   number of ions     NIONS =     32
   non local maximal  LDIM  =      6   non local SUM 2l+1 LMDIM =     18
   total plane-waves  NPLWV = 343000
   max r-space proj   IRMAX =      1   max aug-charges    IRDMAX=  12525
   dimension x,y,z NGX =    70 NGY =   70 NGZ =   70
   dimension x,y,z NGXF=    96 NGYF=   96 NGZF=   96
   support grid    NGXF=    96 NGYF=   96 NGZF=   96
   ions per type =               4  24   4
 NGX,Y,Z   is equivalent  to a cutoff of  13.46, 13.46, 13.46 a.u.
 NGXF,Y,Z  is equivalent  to a cutoff of  18.45, 18.45, 18.45 a.u.


 I would recommend the setting:
   dimension x,y,z NGX =    67 NGY =   67 NGZ =   67
 SYSTEM =  Ag1F6Sb1_ICSD_411795                    
 POSCAR =  Ag1F6Sb1   [BCC,BCC,cI64] (STD_PRIM doi:

 Startparameter for this run:
   NWRITE =      2    write-flag & timer
   PREC   = high      medium, high low
   ISTART =      0    job   : 0-new  1-cont  2-samecut
   ICHARG =      2    charge: 1-file 2-atom 10-const
   ISPIN  =      1    spin polarized calculation?
   LNONCOLLINEAR =      F non collinear calculations
   LSORBIT =      F    spin-orbit coupling
   INIWAV =      1    electr: 0-lowe 1-rand  2-diag
   LASPH  =      F    aspherical Exc in radial PAW
   METAGGA=      F    non-selfconsistent MetaGGA calc.

 Electronic Relaxation 1
   ENCUT  =  560.0 eV  41.16 Ry    6.42 a.u.  16.69 16.69 16.69*2*pi/ulx,y,z
   ENINI  =  560.0     initial cutoff
   ENAUG  =  613.6 eV  augmentation charge cutoff
   NELM   =    120;   NELMIN=  2; NELMDL= -5     # of ELM steps 
   EDIFF  = 0.1E-03   stopping-criterion for ELM
   LREAL  =      F    real-space projection
   LCOMPAT=      F    compatible to vasp.4.4
   LREAL_COMPAT= F    compatible to vasp.4.5.1-3
   GGA_COMPAT  = T    GGA compatible to vasp.4.4-vasp.4.6
   LMAXPAW     = -100 max onsite density
   LMAXMIX     =    4 max onsite mixed and CHGCAR
   VOSKOWN=      0    Vosko Wilk Nusair interpolation
   ROPT   =    0.00000   0.00000   0.00000
 Ionic relaxation
   EDIFFG = 0.1E-02   stopping-criterion for IOM
   NSW    =      0    number of steps for IOM
   NBLOCK =      1;   KBLOCK =      1    inner block; outer block 
   IBRION =     -1    ionic relax: 0-MD 1-quasi-New 2-CG
   NFREE  =      1    steps in history (QN), initial steepest desc. (CG)
   ISIF   =      2    stress and relaxation
   IWAVPR =      0    prediction:  0-non 1-charg 2-wave 3-comb
   ISYM   =      2    0-nonsym 1-usesym 2-fastsym
   LCORR  =      T    Harris-Foulkes like correction to forces

   POTIM  =   0.50    time-step for ionic-motion
   TEIN   =    0.0    initial temperature
   TEBEG  =    0.0;   TEEND  =   0.0 temperature during run
   SMASS  =  -3.00    Nose mass-parameter (am)
   estimated Nose-frequenzy (Omega)   =  0.10E-29 period in steps =****** mass=  -0.171E-26a.u.
   NPACO  =    256;   APACO  = 16.0  distance and # of slots for P.C.
   PSTRESS=    0.0 pullay stress

  Mass of Ions in am
   POMASS = 107.87 19.00121.75
  Ionic Valenz
   ZVAL   =  11.00  7.00  5.00
  Atomic Wigner-Seitz radii
   RWIGS  =  -1.00 -1.00 -1.00
   NELECT =     232.0000    total number of electrons
   NUPDOWN=      -1.0000    fix difference up-down

 DOS related values:
   EMIN   = -30.00;   EMAX   = 45.00  energy-range for DOS
   ISMEAR =    -5;   SIGMA  =   0.05  broadening in eV -4-tet -1-fermi 0-gaus

 Electronic relaxation 2 (details)
   IALGO  =     38    algorithm
   LDIAG  =      T    sub-space diagonalisation
   IMIX   =      4    mixing-type and parameters
     AMIX     =   0.40;   BMIX     =  1.00
     AMIX_MAG =   1.60;   BMIX_MAG =  1.00
     AMIN     =   0.10
     WC   =   100.;   INIMIX=   1;  MIXPRE=   1

 Intra band minimization:
   WEIMIN = 0.0000     energy-eigenvalue tresh-hold
   EBREAK =  0.12E-06  absolut break condition
   DEPER  =   0.30     relativ break condition  

   TIME   =   0.10     timestep for ELM

  volume/ion in A,a.u.               =      15.56       104.99
  Fermi-wavevector in a.u.,eV,Ry     =   1.269206 21.917406  1.610884

 Second variation
   LSECVAR=     F    do a second variation
 
 Write flags
   LWAVE  =      F    write WAVECAR
   LCHARG =      T    write CHGCAR
   LVTOT  =      F    write LOCPOT, local potential
   LELF   =      F    write electronic localiz. function (ELF)
   LORBIT =     10    0 simple, 1 ext, 2 COOP (PROOUT)


 Dipole corrections
   IDIPOL =      0    1-x, 2-y, 3-z
   LDIPOL =      F    correct potential

 LDA+U is selected, type is set to LDAUTYPE =  2
   angular momentum for each species LDAUL =     2    0    0
   U (eV)           for each species LDAUU =   5.8  0.0  0.0
   J (eV)           for each species LDAUJ =   0.0  0.0  0.0


--------------------------------------------------------------------------------------------------------


 Static calculation
 charge density will be updated during run
 non-spin polarized calculation
 Variant of blocked Davidson
 Davidson routine will perform the subspace rotation
 performe sub-space diagonalisation
    after iterative eigenvector-optimisation
 modified Broyden-mixing scheme, WC =      100.0
 initial mixing is a Kerker type mixing with AMIX =  0.4000 and BMIX =      1.0000
 Hartree-type preconditioning will be used
 using additional bands           93
 reciprocal scheme for non local part
 use partial core corrections
 calculate Harris-corrections to forces 
   (improved forces if not selfconsistent)
 use gradient corrections 
 use of overlap-Matrix (Vanderbilt PP)
 Fermi weights with tetrahedron method with Bloechl corrections


--------------------------------------------------------------------------------------------------------


  energy-cutoff  :      560.00
  volume of cell :      497.87
      direct lattice vectors                 reciprocal lattice vectors
    -4.992890462  4.992890462  4.992890462     0.000000000  0.100142393  0.100142393
     4.992890462 -4.992890462  4.992890462     0.100142393  0.000000000  0.100142393
     4.992890462  4.992890462 -4.992890462     0.100142393  0.100142393  0.000000000

  length of vectors
     8.647939956  8.647939956  8.647939956     0.141622731  0.141622731  0.141622731


 
 k-points in units of 2pi/SCALE and weight: KPOINTS File, automatically generated by
   0.00000000  0.00000000  0.00000000       0.003
   0.00000000  0.01430606  0.01430606       0.035
   0.00000000  0.02861211  0.02861211       0.035
   0.00000000  0.04291817  0.04291817       0.035
   0.01430606  0.01430606  0.02861211       0.070
   0.01430606  0.02861211  0.04291817       0.070
   0.01430606  0.04291817  0.05722422       0.070
   0.01430606 -0.04291817 -0.02861211       0.070
   0.02861211  0.02861211  0.05722422       0.070
   0.02861211  0.02861211  0.02861211       0.023
   0.02861211  0.04291817  0.04291817       0.070
   0.02861211  0.00000000  0.00000000       0.017
   0.04291817  0.04291817  0.05722422       0.023
   0.04291817 -0.01430606  0.00000000       0.035
   0.04291817  0.00000000  0.01430606       0.035
   0.05722422 -0.02861211  0.00000000       0.035
   0.05722422 -0.01430606  0.01430606       0.070
   0.05722422  0.00000000  0.02861211       0.035
  -0.02861211 -0.02861211 -0.08583634       0.070
   0.05722422  0.00000000  0.00000000       0.017
   0.07153028 -0.01430606  0.00000000       0.035
   0.07153028  0.00000000  0.01430606       0.035
  -0.01430606 -0.01430606 -0.08583634       0.023
   0.08583634  0.00000000  0.00000000       0.017
 
 k-points in reciprocal lattice and weights: KPOINTS File, automatically generated by
   0.00000000  0.00000000  0.00000000       0.003
   0.14285714  0.00000000  0.00000000       0.035
   0.28571429  0.00000000  0.00000000       0.035
   0.42857143  0.00000000  0.00000000       0.035
   0.14285714  0.14285714  0.00000000       0.070
   0.28571429  0.14285714  0.00000000       0.070
   0.42857143  0.14285714  0.00000000       0.070
  -0.42857143  0.14285714  0.00000000       0.070
   0.28571429  0.28571429  0.00000000       0.070
   0.14285714  0.14285714  0.14285714       0.023
   0.28571429  0.14285714  0.14285714       0.070
  -0.14285714  0.14285714  0.14285714       0.017
   0.28571429  0.28571429  0.14285714       0.023
  -0.28571429  0.28571429  0.14285714       0.035
  -0.14285714  0.28571429  0.14285714       0.035
  -0.42857143  0.42857143  0.14285714       0.035
  -0.28571429  0.42857143  0.14285714       0.070
  -0.14285714  0.42857143  0.14285714       0.035
  -0.42857143 -0.42857143  0.14285714       0.070
  -0.28571429  0.28571429  0.28571429       0.017
  -0.42857143  0.42857143  0.28571429       0.035
  -0.28571429  0.42857143  0.28571429       0.035
  -0.42857143 -0.42857143  0.28571429       0.023
  -0.42857143  0.42857143  0.42857143       0.017
 
 position of ions in fractional coordinates (direct lattice) 
   0.50000000  0.00000000  0.00000000
   0.50000000  0.50000000  0.50000000
   0.00000000  0.50000000  0.00000000
   0.00000000  0.00000000  0.50000000
   0.52794096  0.08037647  0.32398555
   0.25639092  0.20395541  0.17601445
   0.24360908  0.41962353  0.94756449
   0.97205904  0.29604459  0.55243551
   0.44756449  0.24360908  0.91962353
   0.05243551  0.97205904  0.79604459
   0.82398555  0.52794096  0.58037647
   0.67601445  0.25639092  0.70395541
   0.20395541  0.67601445  0.75639092
   0.08037647  0.82398555  0.02794096
   0.29604459  0.05243551  0.47205904
   0.41962353  0.44756449  0.74360908
   0.47205904  0.91962353  0.67601445
   0.74360908  0.79604459  0.82398555
   0.75639092  0.58037647  0.05243551
   0.02794096  0.70395541  0.44756449
   0.55243551  0.75639092  0.08037647
   0.94756449  0.02794096  0.20395541
   0.17601445  0.47205904  0.41962353
   0.32398555  0.74360908  0.29604459
   0.79604459  0.32398555  0.24360908
   0.91962353  0.17601445  0.97205904
   0.70395541  0.94756449  0.52794096
   0.58037647  0.55243551  0.25639092
   0.00000000  0.00000000  0.00000000
   0.50000000  0.00000000  0.50000000
   0.00000000  0.50000000  0.50000000
   0.50000000  0.50000000  0.00000000
 
 position of ions in cartesian coordinates  (Angst):
  -2.49644523  2.49644523  2.49644523
   2.49644523  2.49644523  2.49644523
   2.49644523 -2.49644523  2.49644523
   2.49644523  2.49644523 -2.49644523
  -0.61701612  3.85226485  1.41963793
   0.61701612  1.14062561  1.41963793
   5.60990658  3.85226485 -1.41963793
  -0.61701612  6.13351608  3.57325253
   3.57325253  5.60990658 -1.14062561
   8.56614299 -0.61701612  1.14062561
   1.41963793  4.37587434  3.85226485
   1.41963793  5.60990658  1.14062561
   6.13351608  1.41963793  0.61701612
   3.85226485 -3.57325253  4.37587434
   1.14062561  3.57325253 -0.61701612
   3.85226485  3.57325253  0.61701612
   5.60990658  1.14062561  3.57325253
   4.37587434  3.85226485  3.57325253
  -0.61701612  1.14062561  6.41252840
   5.60990658 -1.14062561  1.41963793
   1.41963793 -0.61701612  6.13351608
  -3.57325253  5.60990658  3.85226485
   3.57325253  0.61701612  1.14062561
   3.57325253 -0.61701612  3.85226485
  -1.14062561  3.57325253  4.37587434
   1.14062561  8.56614299  0.61701612
   3.85226485  1.41963793  5.60990658
   1.14062561  1.41963793  4.37587434
   0.00000000  0.00000000  0.00000000
   0.00000000  4.99289046  0.00000000
   4.99289046  0.00000000  0.00000000
   0.00000000  0.00000000  4.99289046
 


--------------------------------------------------------------------------------------------------------


 k-point  1 :  0.00000.00000.0000  plane waves:  14915
 k-point  2 :  0.14290.00000.0000  plane waves:  15007
 k-point  3 :  0.28570.00000.0000  plane waves:  14993
 k-point  4 :  0.42860.00000.0000  plane waves:  15014
 k-point  5 :  0.14290.14290.0000  plane waves:  14985
 k-point  6 :  0.28570.14290.0000  plane waves:  14987
 k-point  7 :  0.42860.14290.0000  plane waves:  14981
 k-point  8 :  -.42860.14290.0000  plane waves:  14987
 k-point  9 :  0.28570.28570.0000  plane waves:  14972
 k-point 10 :  0.14290.14290.1429  plane waves:  14975
 k-point 11 :  0.28570.14290.1429  plane waves:  14972
 k-point 12 :  -.14290.14290.1429  plane waves:  15015
 k-point 13 :  0.28570.28570.1429  plane waves:  14978
 k-point 14 :  -.28570.28570.1429  plane waves:  14986
 k-point 15 :  -.14290.28570.1429  plane waves:  14986
 k-point 16 :  -.42860.42860.1429  plane waves:  14965
 k-point 17 :  -.28570.42860.1429  plane waves:  14990
 k-point 18 :  -.14290.42860.1429  plane waves:  14965
 k-point 19 :  -.4286-.42860.1429  plane waves:  14973
 k-point 20 :  -.28570.28570.2857  plane waves:  14983
 k-point 21 :  -.42860.42860.2857  plane waves:  14961
 k-point 22 :  -.28570.42860.2857  plane waves:  14961
 k-point 23 :  -.4286-.42860.2857  plane waves:  14963
 k-point 24 :  -.42860.42860.4286  plane waves:  14984

 maximum number of plane-waves:  15015
 maximal index in each direction: 
   IXMAX= 17   IYMAX= 17   IZMAX= 16
   IXMIN=-17   IYMIN=-17   IZMIN=-17

 NGX is ok and might be reduce to  70
 NGY is ok and might be reduce to  70
 NGZ is ok and might be reduce to  68
 For storing wavefunctions 1202.16 MBYTES are necessary
 For predicting wavefunctions  112.51 MBYTES are necessary
Broyden mixing: mesh for mixing (old mesh)
   NGX = 33   NGY = 33   NGZ = 33
  (NGX  = 96   NGY  = 96   NGZ  = 96)
 gives a total of  35937 points
 initial charge density was supplied:
 charge density of overlapping atoms calculated
 number of electron  232.0000000 magnetization 
 keeping initial charge density in first step


--------------------------------------------------------------------------------------------------------


 Maximum index for augmentation-charges        12039 (set IRDMAX)


--------------------------------------------------------------------------------------------------------


 First call to EWALD:  gamma=   0.224
 Maximum number of real-space cells 3x 3x 3
 Maximum number of reciprocal cells 3x 3x 3

    FEWALD:  VPU time    0.01: CPU time    0.01


----------------------------------------- Iteration    1(   1)  ---------------------------------------


    POTLOK:  VPU time    0.80: CPU time    0.80
    SETDIJ:  VPU time    0.09: CPU time    0.09
    EDDAV :  VPU time  856.20: CPU time  857.29
 BZINTS: Fermi energy: 13.833859;232.000000 electrons
         Band energy: -45.263003;  BLOECHL correction: -0.018833
    DOS   :  VPU time    0.00: CPU time   -0.00
    ------------------------------------------
      LOOP:  VPU time  857.65: CPU time  858.88

 eigenvalue-minimisations  : 10032
 total energy-change (2. order) : 0.1953707E+04  (-0.1205376E+05)
 number of electron  232.0000000 magnetization 
 augmentation part   232.0000000 magnetization 

 Free energy of the ion-electron system (eV)
  ---------------------------------------------------
  alpha Z        PSCENC =       559.03134112
  Ewald energy   TEWEN  =    -13583.02686059
  -1/2 Hartree   DENC   =     -6587.16172095
  -V(xc)+E(xc)   XCENC  =       657.92472746
  PAW double counting   =     14180.01400828   -13803.83093261
  entropy T*S    EENTRO =         0.00000000
  eigenvalues    EBANDS =       -45.26300278
  atomic energy  EATOM  =     20576.01980158
  ---------------------------------------------------
  free energy    TOTEN  =      1953.70736150 eV

  energy without entropy =     1953.70736150  energy(sigma->0) =     1953.70736150


--------------------------------------------------------------------------------------------------------




----------------------------------------- Iteration    1(   2)  ---------------------------------------


    EDDAV :  VPU time  948.72: CPU time  949.93
 BZINTS: Fermi energy:  0.066130;232.000000 electrons
         Band energy:***********;  BLOECHL correction:  0.000000
    DOS   :  VPU time    0.00: CPU time   -0.00
    ------------------------------------------
      LOOP:  VPU time  949.09: CPU time  950.44

 eigenvalue-minimisations  : 11503
 total energy-change (2. order) :-0.1951286E+04  (-0.1832751E+04)
 number of electron  232.0000000 magnetization 
 augmentation part   232.0000000 magnetization 

 Free energy of the ion-electron system (eV)
  ---------------------------------------------------
  alpha Z        PSCENC =       559.03134112
  Ewald energy   TEWEN  =    -13583.02686059
  -1/2 Hartree   DENC   =     -6587.16172095
  -V(xc)+E(xc)   XCENC  =       657.92472746
  PAW double counting   =     14180.01400828   -13803.83093261
  entropy T*S    EENTRO =         0.00000000
  eigenvalues    EBANDS =     -1996.54898940
  atomic energy  EATOM  =     20576.01980158
  ---------------------------------------------------
  free energy    TOTEN  =         2.42137489 eV

  energy without entropy =        2.42137489  energy(sigma->0) =        2.42137489


--------------------------------------------------------------------------------------------------------




----------------------------------------- Iteration    1(   3)  ---------------------------------------


    EDDAV :  VPU time  996.96: CPU time  998.14
 BZINTS: Fermi energy: -2.120674;232.000000 electrons
         Band energy:***********;  BLOECHL correction:  0.000000
    DOS   :  VPU time    0.00: CPU time   -0.00
    ------------------------------------------
      LOOP:  VPU time  997.27: CPU time  998.70

 eigenvalue-minimisations  : 11448
 total energy-change (2. order) :-0.1499785E+03  (-0.1480684E+03)
 number of electron  232.0000000 magnetization 
 augmentation part   232.0000000 magnetization 

 Free energy of the ion-electron system (eV)
  ---------------------------------------------------
  alpha Z        PSCENC =       559.03134112
  Ewald energy   TEWEN  =    -13583.02686059
  -1/2 Hartree   DENC   =     -6587.16172095
  -V(xc)+E(xc)   XCENC  =       657.92472746
  PAW double counting   =     14180.01400828   -13803.83093261
  entropy T*S    EENTRO =         0.00000000
  eigenvalues    EBANDS =     -2146.52746303
  atomic energy  EATOM  =     20576.01980158
  ---------------------------------------------------
  free energy    TOTEN  =      -147.55709875 eV

  energy without entropy =     -147.55709875  energy(sigma->0) =     -147.55709875


--------------------------------------------------------------------------------------------------------




----------------------------------------- Iteration    1(   4)  ---------------------------------------


    EDDAV :  VPU time  934.03: CPU time  935.31
 BZINTS: Fermi energy: -2.135677;232.000000 electrons
         Band energy:***********;  BLOECHL correction:  0.000000
    DOS   :  VPU time    0.00: CPU time   -0.00
    ------------------------------------------
      LOOP:  VPU time  934.34: CPU time  936.19

 eigenvalue-minimisations  : 11056
 total energy-change (2. order) :-0.1712273E+01  (-0.1710698E+01)
 number of electron  232.0000000 magnetization 
 augmentation part   232.0000000 magnetization 

 Free energy of the ion-electron system (eV)
  ---------------------------------------------------
  alpha Z        PSCENC =       559.03134112
  Ewald energy   TEWEN  =    -13583.02686059
  -1/2 Hartree   DENC   =     -6587.16172095
  -V(xc)+E(xc)   XCENC  =       657.92472746
  PAW double counting   =     14180.01400828   -13803.83093261
  entropy T*S    EENTRO =         0.00000000
  eigenvalues    EBANDS =     -2148.23973644
  atomic energy  EATOM  =     20576.01980158
  ---------------------------------------------------
  free energy    TOTEN  =      -149.26937215 eV

  energy without entropy =     -149.26937215  energy(sigma->0) =     -149.26937215


--------------------------------------------------------------------------------------------------------




----------------------------------------- Iteration    1(   5)  ---------------------------------------


    EDDAV :  VPU time  921.77: CPU time  923.13
 BZINTS: Fermi energy: -2.135677;232.000000 electrons
         Band energy:***********;  BLOECHL correction:  0.000000
    DOS   :  VPU time    0.00: CPU time   -0.00
    CHARGE:  VPU time   42.73: CPU time   42.78
    MIXING:  VPU time    0.02: CPU time    0.02
    ------------------------------------------
      LOOP:  VPU time  964.83: CPU time  966.51

 eigenvalue-minimisations  : 11096
 total energy-change (2. order) :-0.1405571E-01  (-0.1405536E-01)
 number of electron  232.0000206 magnetization 
 augmentation part    54.0001020 magnetization 

 Broyden mixing:
  rms(total) = 0.24927E+01    rms(broyden)= 0.24914E+01
  rms(prec ) = 0.39665E+01
  weight for this iteration     100.00

 Free energy of the ion-electron system (eV)
  ---------------------------------------------------
  alpha Z        PSCENC =       559.03134112
  Ewald energy   TEWEN  =    -13583.02686059
  -1/2 Hartree   DENC   =     -6587.16172095
  -V(xc)+E(xc)   XCENC  =       657.92472746
  PAW double counting   =     14180.01400828   -13803.83093261
  entropy T*S    EENTRO =         0.00000000
  eigenvalues    EBANDS =     -2148.25379214
  atomic energy  EATOM  =     20576.01980158
  ---------------------------------------------------
  free energy    TOTEN  =      -149.28342786 eV

  energy without entropy =     -149.28342786  energy(sigma->0) =     -149.28342786


--------------------------------------------------------------------------------------------------------




----------------------------------------- Iteration    1(   6)  ---------------------------------------


    POTLOK:  VPU time    0.74: CPU time    0.74
    SETDIJ:  VPU time    0.09: CPU time    0.09
    EDDAV :  VPU time  929.45: CPU time  930.62
 BZINTS: Fermi energy: -1.897505;232.000000 electrons
         Band energy:***********;  BLOECHL correction:  0.000000
    DOS   :  VPU time    0.00: CPU time   -0.00
    CHARGE:  VPU time   43.99: CPU time   44.03
    MIXING:  VPU time    0.02: CPU time    0.02
    ------------------------------------------
      LOOP:  VPU time  974.61: CPU time  976.03

 eigenvalue-minimisations  : 10468
 total energy-change (2. order) : 0.1783541E+02  (-0.3715909E+01)
 number of electron  232.0000189 magnetization 
 augmentation part    50.8028624 magnetization 

 Broyden mixing:
  rms(total) = 0.82762E+00    rms(broyden)= 0.82635E+00
  rms(prec ) = 0.10669E+01
  weight for this iteration     100.00

 eigenvalues of (default mixing * dielectric matrix)
  average eigenvalue GAMMA=   0.9039
  0.9039

 Free energy of the ion-electron system (eV)
  ---------------------------------------------------
  alpha Z        PSCENC =       559.03134112
  Ewald energy   TEWEN  =    -13583.02686059
  -1/2 Hartree   DENC   =     -6915.16336692
  -V(xc)+E(xc)   XCENC  =       680.14004097
  PAW double counting   =     15003.60431150   -14631.96079071
  entropy T*S    EENTRO =         0.00000000
  eigenvalues    EBANDS =     -1820.09249776
  atomic energy  EATOM  =     20576.01980158
  ---------------------------------------------------
  free energy    TOTEN  =      -131.44802082 eV

  energy without entropy =     -131.44802082  energy(sigma->0) =     -131.44802082


--------------------------------------------------------------------------------------------------------




----------------------------------------- Iteration    1(   7)  ---------------------------------------


    POTLOK:  VPU time    0.73: CPU time    0.73
    SETDIJ:  VPU time    0.09: CPU time    0.09
    EDDAV :  VPU time  981.19: CPU time  982.54
 BZINTS: Fermi energy: -1.912508;232.000000 electrons
         Band energy:***********;  BLOECHL correction:  0.000000
    DOS   :  VPU time    0.00: CPU time   -0.00
    CHARGE:  VPU time   42.99: CPU time   43.03
    MIXING:  VPU time    0.03: CPU time    0.03
    ------------------------------------------
      LOOP:  VPU time 1025.34: CPU time 1026.97

 eigenvalue-minimisations  : 11064
 total energy-change (2. order) : 0.1289099E+00  (-0.3691524E+00)
 number of electron  232.0000188 magnetization 
 augmentation part    50.5701333 magnetization 

 Broyden mixing:
  rms(total) = 0.50987E+00    rms(broyden)= 0.50979E+00
  rms(prec ) = 0.65343E+00
  weight for this iteration     100.00

 eigenvalues of (default mixing * dielectric matrix)
  average eigenvalue GAMMA=   1.6227
  1.0344  2.2110

 Free energy of the ion-electron system (eV)
  ---------------------------------------------------
  alpha Z        PSCENC =       559.03134112
  Ewald energy   TEWEN  =    -13583.02686059
  -1/2 Hartree   DENC   =     -6920.39812630
  -V(xc)+E(xc)   XCENC  =       680.63611960
  PAW double counting   =     15120.13331320   -14741.41793952
  entropy T*S    EENTRO =         0.00000000
  eigenvalues    EBANDS =     -1822.29675998
  atomic energy  EATOM  =     20576.01980158
  ---------------------------------------------------
  free energy    TOTEN  =      -131.31911089 eV

  energy without entropy =     -131.31911089  energy(sigma->0) =     -131.31911089


--------------------------------------------------------------------------------------------------------




----------------------------------------- Iteration    1(   8)  ---------------------------------------


    POTLOK:  VPU time    0.78: CPU time    0.78
    SETDIJ:  VPU time    0.09: CPU time    0.09
    EDDAV :  VPU time  945.54: CPU time  946.83
 BZINTS: Fermi energy: -2.060662;232.000000 electrons
         Band energy:***********;  BLOECHL correction:  0.000000
    DOS   :  VPU time    0.00: CPU time   -0.00
    CHARGE:  VPU time   42.95: CPU time   43.00
    MIXING:  VPU time    0.03: CPU time    0.03
    ------------------------------------------
      LOOP:  VPU time  989.69: CPU time  991.24

 eigenvalue-minimisations  : 10807
 total energy-change (2. order) : 0.1368246E+00  (-0.6090654E-01)
 number of electron  232.0000188 magnetization 
 augmentation part    50.7321233 magnetization 

 Broyden mixing:
  rms(total) = 0.10259E+00    rms(broyden)= 0.10254E+00
  rms(prec ) = 0.15270E+00
  weight for this iteration     100.00

 eigenvalues of (default mixing * dielectric matrix)
  average eigenvalue GAMMA=   1.4640
  2.4967  0.9476  0.9476

 Free energy of the ion-electron system (eV)
  ---------------------------------------------------
  alpha Z        PSCENC =       559.03134112
  Ewald energy   TEWEN  =    -13583.02686059
  -1/2 Hartree   DENC   =     -6920.10283059
  -V(xc)+E(xc)   XCENC  =       681.03747428
  PAW double counting   =     15281.23594816   -14891.59699199
  entropy T*S    EENTRO =         0.00000000
  eigenvalues    EBANDS =     -1833.78016829
  atomic energy  EATOM  =     20576.01980158
  ---------------------------------------------------
  free energy    TOTEN  =      -131.18228632 eV

  energy without entropy =     -131.18228632  energy(sigma->0) =     -131.18228632


--------------------------------------------------------------------------------------------------------




----------------------------------------- Iteration    1(   9)  ---------------------------------------


    POTLOK:  VPU time    0.72: CPU time    0.73
    SETDIJ:  VPU time    0.09: CPU time    0.09
    EDDAV :  VPU time  970.50: CPU time  971.85
 BZINTS: Fermi energy: -2.030656;232.000000 electrons
         Band energy:***********;  BLOECHL correction:  0.000000
    DOS   :  VPU time    0.00: CPU time   -0.00
    CHARGE:  VPU time   43.32: CPU time   43.37
    MIXING:  VPU time    0.03: CPU time    0.03
    ------------------------------------------
      LOOP:  VPU time 1014.96: CPU time 1016.67

 eigenvalue-minimisations  : 11280
 total energy-change (2. order) : 0.8849055E-02  (-0.9909107E-02)
 number of electron  232.0000188 magnetization 
 augmentation part    50.6052359 magnetization 

 Broyden mixing:
  rms(total) = 0.28895E-01    rms(broyden)= 0.28881E-01
  rms(prec ) = 0.43335E-01
  weight for this iteration     100.00

 eigenvalues of (default mixing * dielectric matrix)
  average eigenvalue GAMMA=   1.5375
  0.9352  0.9352  2.1399  2.1399

 Free energy of the ion-electron system (eV)
  ---------------------------------------------------
  alpha Z        PSCENC =       559.03134112
  Ewald energy   TEWEN  =    -13583.02686059
  -1/2 Hartree   DENC   =     -6933.90251664
  -V(xc)+E(xc)   XCENC  =       681.93543372
  PAW double counting   =     15312.20576293   -14922.26459065
  entropy T*S    EENTRO =         0.00000000
  eigenvalues    EBANDS =     -1821.17180873
  atomic energy  EATOM  =     20576.01980158
  ---------------------------------------------------
  free energy    TOTEN  =      -131.17343727 eV

  energy without entropy =     -131.17343727  energy(sigma->0) =     -131.17343727


--------------------------------------------------------------------------------------------------------




----------------------------------------- Iteration    1(  10)  ---------------------------------------


    POTLOK:  VPU time    0.78: CPU time    0.78
    SETDIJ:  VPU time    0.10: CPU time    0.10
    EDDAV :  VPU time  950.31: CPU time  951.51
 BZINTS: Fermi energy: -2.030656;232.000000 electrons
         Band energy:***********;  BLOECHL correction:  0.000000
    DOS   :  VPU time    0.00: CPU time   -0.00
    CHARGE:  VPU time   42.57: CPU time   42.60
    MIXING:  VPU time    0.03: CPU time    0.03
    ------------------------------------------
      LOOP:  VPU time  994.09: CPU time  995.52

 eigenvalue-minimisations  : 11400
 total energy-change (2. order) :-0.2068286E-02  (-0.1124819E-02)
 number of electron  232.0000188 magnetization 
 augmentation part    50.5935462 magnetization 

 Broyden mixing:
  rms(total) = 0.17662E-01    rms(broyden)= 0.17651E-01
  rms(prec ) = 0.23664E-01
  weight for this iteration     100.00

 eigenvalues of (default mixing * dielectric matrix)
  average eigenvalue GAMMA=   1.4990
  2.5424  2.1301  0.9613  0.9613  0.9001

 Free energy of the ion-electron system (eV)
  ---------------------------------------------------
  alpha Z        PSCENC =       559.03134112
  Ewald energy   TEWEN  =    -13583.02686059
  -1/2 Hartree   DENC   =     -6937.97703485
  -V(xc)+E(xc)   XCENC  =       682.14825495
  PAW double counting   =     15309.66883436   -14919.70918868
  entropy T*S    EENTRO =         0.00000000
  eigenvalues    EBANDS =     -1817.33065345
  atomic energy  EATOM  =     20576.01980158
  ---------------------------------------------------
  free energy    TOTEN  =      -131.17550556 eV

  energy without entropy =     -131.17550556  energy(sigma->0) =     -131.17550556


--------------------------------------------------------------------------------------------------------




----------------------------------------- Iteration    1(  11)  ---------------------------------------


    POTLOK:  VPU time    0.77: CPU time    0.78
    SETDIJ:  VPU time    0.10: CPU time    0.10
    EDDAV :  VPU time  911.95: CPU time  913.12
 BZINTS: Fermi energy: -2.032532;232.000000 electrons
         Band energy:***********;  BLOECHL correction:  0.000000
    DOS   :  VPU time    0.00: CPU time   -0.00
    CHARGE:  VPU time   42.57: CPU time   42.61
    MIXING:  VPU time    0.03: CPU time    0.03
    ------------------------------------------
      LOOP:  VPU time  955.74: CPU time  957.08

 eigenvalue-minimisations  : 10832
 total energy-change (2. order) :-0.5619790E-03  (-0.3856563E-03)
 number of electron  232.0000188 magnetization 
 augmentation part    50.5949377 magnetization 

 Broyden mixing:
  rms(total) = 0.61543E-02    rms(broyden)= 0.61532E-02
  rms(prec ) = 0.79850E-02
  weight for this iteration     100.00

 eigenvalues of (default mixing * dielectric matrix)
  average eigenvalue GAMMA=   1.5254
  2.8809  1.8253  1.8253  0.9602  0.9602  0.7004

 Free energy of the ion-electron system (eV)
  ---------------------------------------------------
  alpha Z        PSCENC =       559.03134112
  Ewald energy   TEWEN  =    -13583.02686059
  -1/2 Hartree   DENC   =     -6937.36825468
  -V(xc)+E(xc)   XCENC  =       682.10892565
  PAW double counting   =     15309.72716387   -14919.49871479
  entropy T*S    EENTRO =         0.00000000
  eigenvalues    EBANDS =     -1818.16946968
  atomic energy  EATOM  =     20576.01980158
  ---------------------------------------------------
  free energy    TOTEN  =      -131.17606753 eV

  energy without entropy =     -131.17606753  energy(sigma->0) =     -131.17606753


--------------------------------------------------------------------------------------------------------




----------------------------------------- Iteration    1(  12)  ---------------------------------------


    POTLOK:  VPU time    0.78: CPU time    0.78
    SETDIJ:  VPU time    0.09: CPU time    0.10
    EDDAV :  VPU time  858.11: CPU time  859.20
 BZINTS: Fermi energy: -2.045659;232.000000 electrons
         Band energy:***********;  BLOECHL correction:  0.000000
    DOS   :  VPU time    0.00: CPU time   -0.00
    CHARGE:  VPU time   42.60: CPU time   42.64
    MIXING:  VPU time    0.03: CPU time    0.04
    ------------------------------------------
      LOOP:  VPU time  901.92: CPU time  903.28

 eigenvalue-minimisations  :  9984
 total energy-change (2. order) :-0.1607159E-03  (-0.3813506E-04)
 number of electron  232.0000188 magnetization 
 augmentation part    50.6025779 magnetization 

 Broyden mixing:
  rms(total) = 0.51901E-02    rms(broyden)= 0.51885E-02
  rms(prec ) = 0.64127E-02
  weight for this iteration     100.00

 eigenvalues of (default mixing * dielectric matrix)
  average eigenvalue GAMMA=   1.5382
  2.9299  2.4312  1.6888  1.0015  1.0015  0.9633  0.7512

 Free energy of the ion-electron system (eV)
  ---------------------------------------------------
  alpha Z        PSCENC =       559.03134112
  Ewald energy   TEWEN  =    -13583.02686059
  -1/2 Hartree   DENC   =     -6936.90233315
  -V(xc)+E(xc)   XCENC  =       682.08411942
  PAW double counting   =     15309.15549937   -14918.75973241
  entropy T*S    EENTRO =         0.00000000
  eigenvalues    EBANDS =     -1818.77806358
  atomic energy  EATOM  =     20576.01980158
  ---------------------------------------------------
  free energy    TOTEN  =      -131.17622825 eV

  energy without entropy =     -131.17622825  energy(sigma->0) =     -131.17622825


--------------------------------------------------------------------------------------------------------




----------------------------------------- Iteration    1(  13)  ---------------------------------------


    POTLOK:  VPU time    0.74: CPU time    0.74
    SETDIJ:  VPU time    0.09: CPU time    0.09
    EDDAV :  VPU time  712.73: CPU time  713.63
 BZINTS: Fermi energy: -2.032532;232.000000 electrons
         Band energy:***********;  BLOECHL correction:  0.000000
    DOS   :  VPU time   -0.00: CPU time   -0.00
    ------------------------------------------
      LOOP:  VPU time  713.87: CPU time  714.96

 eigenvalue-minimisations  :  6792
 total energy-change (2. order) : 0.3747232E-04  (-0.8073836E-05)
 number of electron  232.0000188 magnetization 
 augmentation part    50.6025779 magnetization 

 Free energy of the ion-electron system (eV)
  ---------------------------------------------------
  alpha Z        PSCENC =       559.03134112
  Ewald energy   TEWEN  =    -13583.02686059
  -1/2 Hartree   DENC   =     -6937.21901602
  -V(xc)+E(xc)   XCENC  =       682.10002985
  PAW double counting   =     15308.44274833   -14918.09360726
  entropy T*S    EENTRO =         0.00000000
  eigenvalues    EBANDS =     -1818.43062779
  atomic energy  EATOM  =     20576.01980158
  ---------------------------------------------------
  free energy    TOTEN  =      -131.17619078 eV

  energy without entropy =     -131.17619078  energy(sigma->0) =     -131.17619078


--------------------------------------------------------------------------------------------------------




 average (electrostatic) potential at core
  the test charge radii are     1.1249  0.7167  1.1712
  (the norm of the test charge is              1.0000)
       1 -40.8281       2 -40.8281       3 -40.8281       4 -40.8281       5 -78.9882
       6 -78.9883       7 -78.9882       8 -78.9882       9 -78.9882      10 -78.9882
      11 -78.9882      12 -78.9883      13 -78.9883      14 -78.9882      15 -78.9882
      16 -78.9882      17 -78.9882      18 -78.9883      19 -78.9882      20 -78.9882
      21 -78.9882      22 -78.9882      23 -78.9882      24 -78.9883      25 -78.9883
      26 -78.9882      27 -78.9882      28 -78.9882      29 -93.8321      30 -93.8321
      31 -93.8321      32 -93.8321
 
 
 
 E-fermi :  -2.0325     XC(G=0):  -8.9094     alpha+bet : -7.1644
   add alpha+bet to get absolut eigen values

 k-point   1 :       0.0000    0.0000    0.0000
  band No.  band energies     occupation 
      1     -23.6510      2.00000
      2     -23.5103      2.00000
      3     -23.5103      2.00000
      4     -23.5103      2.00000
      5     -22.7962      2.00000
      6     -22.7962      2.00000
      7     -22.7962      2.00000
      8     -22.7949      2.00000
      9     -22.7949      2.00000
     10     -22.7914      2.00000
     11     -22.7353      2.00000
     12     -22.7353      2.00000
     13     -22.7353      2.00000
     14     -22.6714      2.00000
     15     -22.6714      2.00000
     16     -22.6714      2.00000
     17     -22.2693      2.00000
     18     -22.2693      2.00000
     19     -22.2693      2.00000
     20     -22.2367      2.00000
     21     -22.2367      2.00000
     22     -22.1948      2.00000
     23     -22.1948      2.00000
     24     -22.1948      2.00000
     25      -9.4256      2.00000
     26      -9.3119      2.00000
     27      -9.3119      2.00000
     28      -9.3119      2.00000
     29      -6.2238      2.00000
     30      -6.2238      2.00000
     31      -6.2238      2.00000
     32      -6.0923      2.00000
     33      -6.0923      2.00000
     34      -6.0330      2.00000
     35      -6.0330      2.00000
     36      -6.0330      2.00000
     37      -5.9111      2.00000
     38      -5.9072      2.00000
     39      -5.9072      2.00000
     40      -5.9072      2.00000
     41      -4.7317      2.00000
     42      -4.7317      2.00000
     43      -4.7317      2.00000
     44      -4.7011      2.00000
     45      -4.7011      2.00000
     46      -4.5454      2.00000
     47      -4.5454      2.00000
     48      -4.5454      2.00000
     49      -4.5232      2.00000
     50      -4.5232      2.00000
     51      -4.3573      2.00000
     52      -4.2180      2.00000
     53      -4.2180      2.00000
     54      -4.2180      2.00000
     55      -4.1015      2.00000
     56      -4.1015      2.00000
     57      -4.1015      2.00000
     58      -3.9243      2.00000
     59      -3.9243      2.00000
     60      -3.9243      2.00000
     61      -3.9076      2.00000
     62      -3.9076      2.00000
     63      -3.8861      2.00000
     64      -3.5149      2.00000
     65      -3.5149      2.00000
     66      -3.5149      2.00000
     67      -3.4856      2.00000
     68      -3.4855      2.00000
     69      -3.4855      2.00000
     70      -3.4433      2.00000
     71      -3.4433      2.00000
     72      -3.3683      2.00000
     73      -3.3683      2.00000
     74      -3.3683      2.00000
     75      -3.3422      2.00000
     76      -3.2809      2.00000
     77      -3.2809      2.00000
     78      -3.2809      2.00000
     79      -3.1477      2.00000
     80      -3.1477      2.00000
     81      -3.1477      2.00000
     82      -3.1064      2.00000
     83      -3.1064      2.00000
     84      -3.1064      2.00000
     85      -3.0819      2.00000
     86      -3.0819      2.00000
     87      -3.0819      2.00000
     88      -3.0317      2.00000
     89      -3.0317      2.00000
     90      -2.9815      2.00000
     91      -2.9815      2.00000
     92      -2.9814      2.00000
     93      -2.9214      2.00000
     94      -2.9214      2.00000
     95      -2.9214      2.00000
     96      -2.8493      2.00000
     97      -2.8153      2.00000
     98      -2.8153      2.00000
     99      -2.8153      2.00000
    100      -2.7111      2.00000
    101      -2.7111      2.00000
    102      -2.6806      2.00000
    103      -2.6188      2.00000
    104      -2.6188      2.00000
    105      -2.6188      2.00000
    106      -2.5466      2.00000
    107      -2.5466      2.00000
    108      -2.5466      2.00000
    109      -2.3473      2.00000
    110      -2.3473      2.00000
    111      -2.3473      2.00000
    112      -2.0662      2.00000
    113      -2.0662      2.00000
    114      -2.0451      2.00000
    115      -2.0451      2.00000
    116      -2.0451      2.00000
    117       1.3255      0.00000
    118       3.1679      0.00000
    119       3.1679      0.00000
    120       3.1679      0.00000
    121       4.9995      0.00000
    122       4.9995      0.00000
    123       4.9995      0.00000
    124       5.6452      0.00000
    125       6.9384      0.00000
    126       7.0599      0.00000
    127       7.0599      0.00000
    128       7.0599      0.00000
    129       7.2164      0.00000
    130       7.2164      0.00000
    131       7.7672      0.00000
    132       7.7672      0.00000
    133       7.7672      0.00000
    134       8.5931      0.00000
    135       8.5931      0.00000
    136       8.5931      0.00000
    137       9.5804      0.00000
    138       9.5804      0.00000
    139       9.5804      0.00000
    140       9.6670      0.00000
    141      10.4026      0.00000
    142      10.4026      0.00000
    143      10.7076      0.00000
    144      10.7329      0.00000
    145      10.7329      0.00000
    146      10.7330      0.00000
    147      11.1785      0.00000
    148      11.1785      0.00000
    149      11.1785      0.00000
    150      11.8596      0.00000
    151      11.8596      0.00000
    152      11.8596      0.00000
    153      11.8661      0.00000
    154      11.8661      0.00000
    155      12.4347      0.00000
    156      12.4347      0.00000
    157      12.4347      0.00000
    158      13.0644      0.00000
    159      13.0644      0.00000
    160      13.0645      0.00000
    161      13.1775      0.00000
    162      13.1775      0.00000
    163      13.2074      0.00000
    164      13.5369      0.00000
    165      13.8358      0.00000
    166      13.8358      0.00000
    167      13.8358      0.00000
    168      14.0265      0.00000
    169      14.0265      0.00000
    170      14.0265      0.00000
    171      14.3079      0.00000
    172      14.3079      0.00000
    173      14.3079      0.00000
    174      14.6562      0.00000
    175      14.6562      0.00000
    176      15.0573      0.00000
    177      15.1092      0.00000
    178      15.1092      0.00000
    179      16.1324      0.00000
    180      16.1324      0.00000
    181      16.1324      0.00000
    182      16.5000      0.00000
    183      16.5000      0.00000
    184      16.5000      0.00000
    185      16.6992      0.00000
    186      16.8862      0.00000
    187      16.8862      0.00000
    188      16.8862      0.00000
    189      17.1675      0.00000
    190      17.1675      0.00000
    191      17.7636      0.00000
    192      17.7636      0.00000
    193      17.7636      0.00000
    194      18.0143      0.00000
    195      18.0143      0.00000
    196      18.0143      0.00000
    197      18.3550      0.00000
    198      18.3550      0.00000
    199      18.4107      0.00000
    200      18.5161      0.00000
    201      18.5161      0.00000
    202      18.5162      0.00000
    203      18.7630      0.00000
    204      18.7630      0.00000
    205      18.7631      0.00000
    206      19.0940      0.00000
    207      19.0940      0.00000
    208      19.0941      0.00000
    209      19.3050      0.00000

 k-point   2 :       0.1429    0.0000    0.0000
  band No.  band energies     occupation 
      1     -23.6443      2.00000
      2     -23.5176      2.00000
      3     -23.5109      2.00000
      4     -23.5109      2.00000
      5     -22.7967      2.00000
      6     -22.7946      2.00000
      7     -22.7938      2.00000
      8     -22.7915      2.00000
      9     -22.7909      2.00000
     10     -22.7875      2.00000
     11     -22.7387      2.00000
     12     -22.7378      2.00000
     13     -22.7329      2.00000
     14     -22.6776      2.00000
     15     -22.6772      2.00000
     16     -22.6753      2.00000
     17     -22.2670      2.00000
     18     -22.2658      2.00000
     19     -22.2656      2.00000
     20     -22.2377      2.00000
     21     -22.2342      2.00000
     22     -22.1971      2.00000
     23     -22.1969      2.00000
     24     -22.1964      2.00000
     25      -9.4152      2.00000
     26      -9.3129      2.00000
     27      -9.3080      2.00000
     28      -9.3075      2.00000
     29      -6.2405      2.00000
     30      -6.2382      2.00000
     31      -6.2286      2.00000
     32      -6.1043      2.00000
     33      -6.0982      2.00000
     34      -6.0553      2.00000
     35      -6.0426      2.00000
     36      -6.0388      2.00000
     37      -5.9614      2.00000
     38      -5.9357      2.00000
     39      -5.9237      2.00000
     40      -5.9222      2.00000
     41      -4.7009      2.00000
     42      -4.6928      2.00000
     43      -4.6813      2.00000
     44      -4.6740      2.00000
     45      -4.6698      2.00000
     46      -4.5307      2.00000
     47      -4.5280      2.00000
     48      -4.5128      2.00000
     49      -4.4922      2.00000
     50      -4.4621      2.00000
     51      -4.3380      2.00000
     52      -4.2436      2.00000
     53      -4.2251      2.00000
     54      -4.2098      2.00000
     55      -4.1223      2.00000
     56      -4.1064      2.00000
     57      -4.0968      2.00000
     58      -3.9772      2.00000
     59      -3.9413      2.00000
     60      -3.9298      2.00000
     61      -3.9165      2.00000
     62      -3.9011      2.00000
     63      -3.8615      2.00000
     64      -3.5289      2.00000
     65      -3.5217      2.00000
     66      -3.5118      2.00000
     67      -3.5100      2.00000
     68      -3.5022      2.00000
     69      -3.4826      2.00000
     70      -3.4612      2.00000
     71      -3.4478      2.00000
     72      -3.4046      2.00000
     73      -3.3870      2.00000
     74      -3.3861      2.00000
     75      -3.3326      2.00000
     76      -3.2629      2.00000
     77      -3.2506      2.00000
     78      -3.2477      2.00000
     79      -3.1615      2.00000
     80      -3.1541      2.00000
     81      -3.1456      2.00000
     82      -3.1212      2.00000
     83      -3.1090      2.00000
     84      -3.1042      2.00000
     85      -3.0914      2.00000
     86      -3.0771      2.00000
     87      -3.0655      2.00000
     88      -3.0283      2.00000
     89      -3.0223      2.00000
     90      -2.9931      2.00000
     91      -2.9909      2.00000
     92      -2.9738      2.00000
     93      -2.9070      2.00000
     94      -2.9039      2.00000
     95      -2.9026      2.00000
     96      -2.8361      2.00000
     97      -2.7912      2.00000
     98      -2.7852      2.00000
     99      -2.7852      2.00000
    100      -2.7121      2.00000
    101      -2.7084      2.00000
    102      -2.6799      2.00000
    103      -2.6220      2.00000
    104      -2.6141      2.00000
    105      -2.6124      2.00000
    106      -2.5564      2.00000
    107      -2.5544      2.00000
    108      -2.5523      2.00000
    109      -2.3553      2.00000
    110      -2.3501      2.00000
    111      -2.3458      2.00000
    112      -2.1012      2.00000
    113      -2.0869      2.00000
    114      -2.0827      2.00000
    115      -2.0605      2.00000
    116      -2.0560      2.00000
    117       1.4278      0.00000
    118       3.1122      0.00000
    119       3.1473      0.00000
    120       3.1478      0.00000
    121       4.8792      0.00000
    122       4.9293      0.00000
    123       4.9540      0.00000
    124       5.5266      0.00000
    125       7.0197      0.00000
    126       7.1304      0.00000
    127       7.1511      0.00000
    128       7.1908      0.00000
    129       7.2955      0.00000
    130       7.3619      0.00000
    131       7.7571      0.00000
    132       7.8240      0.00000
    133       7.8565      0.00000
    134       8.5620      0.00000
    135       8.5658      0.00000
    136       8.6035      0.00000
    137       9.4449      0.00000
    138       9.4835      0.00000
    139       9.5209      0.00000
    140       9.6191      0.00000
    141      10.2897      0.00000
    142      10.3182      0.00000
    143      10.3440      0.00000
    144      10.5281      0.00000
    145      10.6416      0.00000
    146      11.0341      0.00000
    147      11.1998      0.00000
    148      11.2691      0.00000
    149      11.3517      0.00000
    150      11.6247      0.00000
    151      11.7840      0.00000
    152      11.8373      0.00000
    153      12.0562      0.00000
    154      12.1227      0.00000
    155      12.4910      0.00000
    156      12.6568      0.00000
    157      12.6609      0.00000
    158      13.0644      0.00000
    159      13.0999      0.00000
    160      13.1469      0.00000
    161      13.1485      0.00000
    162      13.2325      0.00000
    163      13.2622      0.00000
    164      13.4054      0.00000
    165      13.6471      0.00000
    166      13.6549      0.00000
    167      13.8425      0.00000
    168      14.0015      0.00000
    169      14.1298      0.00000
    170      14.1518      0.00000
    171      14.1638      0.00000
    172      14.3612      0.00000
    173      14.3940      0.00000
    174      14.6828      0.00000
    175      14.8244      0.00000
    176      15.0442      0.00000
    177      15.1889      0.00000
    178      15.2425      0.00000
    179      15.9780      0.00000
    180      16.0133      0.00000
    181      16.0405      0.00000
    182      16.4803      0.00000
    183      16.4824      0.00000
    184      16.6063      0.00000
    185      16.6163      0.00000
    186      16.7752      0.00000
    187      16.7775      0.00000
    188      16.8881      0.00000
    189      16.9320      0.00000
    190      17.0568      0.00000
    191      17.4102      0.00000
    192      17.4842      0.00000
    193      17.7255      0.00000
    194      17.9993      0.00000
    195      18.0042      0.00000
    196      18.1824      0.00000
    197      18.2007      0.00000
    198      18.3259      0.00000
    199      18.3695      0.00000
    200      18.5107      0.00000
    201      18.5740      0.00000
    202      18.6947      0.00000
    203      18.7541      0.00000
    204      18.8561      0.00000
    205      18.8954      0.00000
    206      19.0561      0.00000
    207      19.1418      0.00000
    208      19.1600      0.00000
    209      19.5595      0.00000

 k-point   3 :       0.2857    0.0000    0.0000
  band No.  band energies     occupation 
      1     -23.6255      2.00000
      2     -23.5378      2.00000
      3     -23.5120      2.00000
      4     -23.5120      2.00000
      5     -22.7975      2.00000
      6     -22.7958      2.00000
      7     -22.7874      2.00000
      8     -22.7842      2.00000
      9     -22.7774      2.00000
     10     -22.7708      2.00000
     11     -22.7478      2.00000
     12     -22.7433      2.00000
     13     -22.7259      2.00000
     14     -22.6946      2.00000
     15     -22.6928      2.00000
     16     -22.6853      2.00000
     17     -22.2609      2.00000
     18     -22.2569      2.00000
     19     -22.2563      2.00000
     20     -22.2406      2.00000
     21     -22.2273      2.00000
     22     -22.2031      2.00000
     23     -22.2023      2.00000
     24     -22.2010      2.00000
     25      -9.3885      2.00000
     26      -9.3179      2.00000
     27      -9.2989      2.00000
     28      -9.2977      2.00000
     29      -6.2820      2.00000
     30      -6.2768      2.00000
     31      -6.2388      2.00000
     32      -6.1404      2.00000
     33      -6.1151      2.00000
     34      -6.1039      2.00000
     35      -6.0581      2.00000
     36      -6.0545      2.00000
     37      -6.0336      2.00000
     38      -5.9927      2.00000
     39      -5.9575      2.00000
     40      -5.9523      2.00000
     41      -4.6461      2.00000
     42      -4.6305      2.00000
     43      -4.6267      2.00000
     44      -4.5885      2.00000
     45      -4.5499      2.00000
     46      -4.5060      2.00000
     47      -4.4836      2.00000
     48      -4.4452      2.00000
     49      -4.4128      2.00000
     50      -4.3641      2.00000
     51      -4.2944      2.00000
     52      -4.2652      2.00000
     53      -4.2217      2.00000
     54      -4.2002      2.00000
     55      -4.1474      2.00000
     56      -4.1282      2.00000
     57      -4.1169      2.00000
     58      -4.0243      2.00000
     59      -3.9785      2.00000
     60      -3.9427      2.00000
     61      -3.9370      2.00000
     62      -3.9115      2.00000
     63      -3.7753      2.00000
     64      -3.6372      2.00000
     65      -3.5900      2.00000
     66      -3.5772      2.00000
     67      -3.5427      2.00000
     68      -3.5146      2.00000
     69      -3.4931      2.00000
     70      -3.4563      2.00000
     71      -3.4130      2.00000
     72      -3.3989      2.00000
     73      -3.3956      2.00000
     74      -3.3585      2.00000
     75      -3.3034      2.00000
     76      -3.2869      2.00000
     77      -3.2542      2.00000
     78      -3.2357      2.00000
     79      -3.2091      2.00000
     80      -3.1797      2.00000
     81      -3.1588      2.00000
     82      -3.1533      2.00000
     83      -3.1075      2.00000
     84      -3.1055      2.00000
     85      -3.0834      2.00000
     86      -3.0514      2.00000
     87      -3.0345      2.00000
     88      -3.0149      2.00000
     89      -3.0029      2.00000
     90      -2.9969      2.00000
     91      -2.9530      2.00000
     92      -2.9210      2.00000
     93      -2.8937      2.00000
     94      -2.8856      2.00000
     95      -2.8600      2.00000
     96      -2.8148      2.00000
     97      -2.7525      2.00000
     98      -2.7514      2.00000
     99      -2.7386      2.00000
    100      -2.7120      2.00000
    101      -2.7028      2.00000
    102      -2.6614      2.00000
    103      -2.6265      2.00000
    104      -2.6016      2.00000
    105      -2.5970      2.00000
    106      -2.5782      2.00000
    107      -2.5732      2.00000
    108      -2.5655      2.00000
    109      -2.3727      2.00000
    110      -2.3513      2.00000
    111      -2.3259      2.00000
    112      -2.1992      2.00000
    113      -2.1735      2.00000
    114      -2.1427      2.00000
    115      -2.0873      2.00000
    116      -2.0854      2.00000
    117       1.7121      0.00000
    118       2.9146      0.00000
    119       3.1014      0.00000
    120       3.1016      0.00000
    121       4.6939      0.00000
    122       4.7875      0.00000
    123       4.8736      0.00000
    124       5.2665      0.00000
    125       7.1789      0.00000
    126       7.2779      0.00000
    127       7.3082      0.00000
    128       7.4580      0.00000
    129       7.4820      0.00000
    130       7.7510      0.00000
    131       7.7770      0.00000
    132       7.9981      0.00000
    133       8.0339      0.00000
    134       8.5072      0.00000
    135       8.5110      0.00000
    136       8.6166      0.00000
    137       9.1355      0.00000
    138       9.1981      0.00000
    139       9.3805      0.00000
    140       9.5190      0.00000
    141      10.0324      0.00000
    142      10.0363      0.00000
    143      10.1312      0.00000
    144      10.1915      0.00000
    145      10.5965      0.00000
    146      10.9521      0.00000
    147      11.1607      0.00000
    148      11.2864      0.00000
    149      11.6324      0.00000
    150      11.7441      0.00000
    151      11.8904      0.00000
    152      12.0004      0.00000
    153      12.3080      0.00000
    154      12.4328      0.00000
    155      12.5887      0.00000
    156      12.9315      0.00000
    157      12.9340      0.00000
    158      13.0280      0.00000
    159      13.0604      0.00000
    160      13.1226      0.00000
    161      13.1814      0.00000
    162      13.3162      0.00000
    163      13.4259      0.00000
    164      13.4641      0.00000
    165      13.4699      0.00000
    166      13.6912      0.00000
    167      13.7587      0.00000
    168      13.9349      0.00000
    169      14.0039      0.00000
    170      14.1342      0.00000
    171      14.3107      0.00000
    172      14.4472      0.00000
    173      14.5208      0.00000
    174      14.6808      0.00000
    175      15.0307      0.00000
    176      15.1509      0.00000
    177      15.2599      0.00000
    178      15.4151      0.00000
    179      15.6609      0.00000
    180      15.8499      0.00000
    181      15.8556      0.00000
    182      16.1856      0.00000
    183      16.2603      0.00000
    184      16.2652      0.00000
    185      16.5056      0.00000
    186      16.6214      0.00000
    187      16.8107      0.00000
    188      16.8893      0.00000
    189      16.9256      0.00000
    190      17.0234      0.00000
    191      17.1797      0.00000
    192      17.3032      0.00000
    193      17.5979      0.00000
    194      17.8507      0.00000
    195      17.9076      0.00000
    196      18.0028      0.00000
    197      18.0039      0.00000
    198      18.2488      0.00000
    199      18.4025      0.00000
    200      18.4376      0.00000
    201      18.4930      0.00000
    202      18.6986      0.00000
    203      18.7484      0.00000
    204      18.9576      0.00000
    205      18.9739      0.00000
    206      19.0533      0.00000
    207      19.1147      0.00000
    208      19.2914      0.00000
    209      19.7803      0.00000

 k-point   4 :       0.4286    0.0000    0.0000
  band No.  band energies     occupation 
      1     -23.5979      2.00000
      2     -23.5666      2.00000
      3     -23.5129      2.00000
      4     -23.5129      2.00000
      5     -22.7980      2.00000
      6     -22.7973      2.00000
      7     -22.7779      2.00000
      8     -22.7731      2.00000
      9     -22.7700      2.00000
     10     -22.7602      2.00000
     11     -22.7464      2.00000
     12     -22.7393      2.00000
     13     -22.7212      2.00000
     14     -22.7190      2.00000
     15     -22.7086      2.00000
     16     -22.6985      2.00000
     17     -22.2533      2.00000
     18     -22.2485      2.00000
     19     -22.2472      2.00000
     20     -22.2452      2.00000
     21     -22.2183      2.00000
     22     -22.2103      2.00000
     23     -22.2084      2.00000
     24     -22.2076      2.00000
     25      -9.3569      2.00000
     26      -9.3318      2.00000
     27      -9.2909      2.00000
     28      -9.2903      2.00000
     29      -6.3156      2.00000
     30      -6.3130      2.00000
     31      -6.2341      2.00000
     32      -6.1921      2.00000
     33      -6.1548      2.00000
     34      -6.1468      2.00000
     35      -6.0785      2.00000
     36      -6.0631      2.00000
     37      -6.0214      2.00000
     38      -6.0198      2.00000
     39      -5.9898      2.00000
     40      -5.9824      2.00000
     41      -4.6125      2.00000
     42      -4.6035      2.00000
     43      -4.5543      2.00000
     44      -4.4839      2.00000
     45      -4.4723      2.00000
     46      -4.4586      2.00000
     47      -4.4506      2.00000
     48      -4.4126      2.00000
     49      -4.3702      2.00000
     50      -4.3214      2.00000
     51      -4.3080      2.00000
     52      -4.2714      2.00000
     53      -4.2512      2.00000
     54      -4.2389      2.00000
     55      -4.1591      2.00000
     56      -4.1515      2.00000
     57      -4.0198      2.00000
     58      -4.0017      2.00000
     59      -3.9994      2.00000
     60      -3.9465      2.00000
     61      -3.9323      2.00000
     62      -3.8965      2.00000
     63      -3.7508      2.00000
     64      -3.7330      2.00000
     65      -3.6405      2.00000
     66      -3.5950      2.00000
     67      -3.5763      2.00000
     68      -3.5360      2.00000
     69      -3.5117      2.00000
     70      -3.4378      2.00000
     71      -3.4279      2.00000
     72      -3.3971      2.00000
     73      -3.3523      2.00000
     74      -3.3450      2.00000
     75      -3.3085      2.00000
     76      -3.2981      2.00000
     77      -3.2854      2.00000
     78      -3.2487      2.00000
     79      -3.2279      2.00000
     80      -3.2012      2.00000
     81      -3.1926      2.00000
     82      -3.1707      2.00000
     83      -3.1393      2.00000
     84      -3.1296      2.00000
     85      -3.0374      2.00000
     86      -3.0147      2.00000
     87      -3.0102      2.00000
     88      -2.9995      2.00000
     89      -2.9763      2.00000
     90      -2.9434      2.00000
     91      -2.9415      2.00000
     92      -2.9002      2.00000
     93      -2.8691      2.00000
     94      -2.8677      2.00000
     95      -2.8072      2.00000
     96      -2.8038      2.00000
     97      -2.7409      2.00000
     98      -2.7371      2.00000
     99      -2.7211      2.00000
    100      -2.7151      2.00000
    101      -2.6811      2.00000
    102      -2.6445      2.00000
    103      -2.6273      2.00000
    104      -2.6152      2.00000
    105      -2.6138      2.00000
    106      -2.5933      2.00000
    107      -2.5763      2.00000
    108      -2.5747      2.00000
    109      -2.3711      2.00000
    110      -2.3338      2.00000
    111      -2.2940      2.00000
    112      -2.2770      2.00000
    113      -2.2555      2.00000
    114      -2.2069      2.00000
    115      -2.1188      2.00000
    116      -2.1185      2.00000
    117       2.1176      0.00000
    118       2.5560      0.00000
    119       3.0646      0.00000
    120       3.0647      0.00000
    121       4.6297      0.00000
    122       4.6730      0.00000
    123       4.8677      0.00000
    124       5.0111      0.00000
    125       7.3047      0.00000
    126       7.3664      0.00000
    127       7.5335      0.00000
    128       7.5821      0.00000
[...]
y     0.0006   -0.0000    0.0001   -0.0000    0.0000    0.0000   -0.0000    0.0000   -0.0000    0.0000
y    -0.0000   -0.0000   -0.0000    0.0000   -0.0000    0.0000
z   181.3974    0.0000   13.2011    0.0000   17.2128    0.0000   -4.1399   -0.0000   -1.9987   -0.0000
z     0.1953   -0.0000    0.0273   -0.0000    0.1147    0.0000   -0.0120   -0.0000    0.0120    0.0000
z     0.0006   -0.0000    0.0001   -0.0000    0.0000    0.0000   -0.0000    0.0000   -0.0000    0.0000
z    -0.0000   -0.0000   -0.0000    0.0000   -0.0000    0.0000
 total charge-density along one line
x   232.0000    0.0000   29.4641    0.0000   34.1639    0.0000   -2.2576    0.0000   -4.2969    0.0000
x    -0.4228    0.0000    0.1700   -0.0000    0.0682    0.0000   -0.0065    0.0000    0.0303   -0.0000
x     0.0022   -0.0000   -0.0038   -0.0000    0.0009   -0.0000    0.0027   -0.0000   -0.0000    0.0000
x    -0.0006    0.0000   -0.0011   -0.0000    0.0006   -0.0000   -0.0007   -0.0000   -0.0005   -0.0000
x     0.0004   -0.0000   -0.0003    0.0000   -0.0001   -0.0000    0.0001   -0.0000    0.0002
y   232.0000   -0.0000   29.4641   -0.0000   34.1639   -0.0000   -2.2576   -0.0000   -4.2969   -0.0000
y    -0.4228    0.0000    0.1700   -0.0000    0.0682    0.0000   -0.0065    0.0000    0.0303   -0.0000
y     0.0022    0.0000   -0.0038    0.0000    0.0009   -0.0000    0.0027   -0.0000   -0.0000    0.0000
y    -0.0006    0.0000   -0.0011   -0.0000    0.0006   -0.0000   -0.0007   -0.0000   -0.0005   -0.0000
y     0.0004   -0.0000   -0.0003   -0.0000   -0.0001   -0.0000    0.0001   -0.0000    0.0002
z   232.0000   -0.0000   29.4641   -0.0000   34.1639   -0.0000   -2.2576   -0.0000   -4.2969   -0.0000
z    -0.4228    0.0000    0.1700   -0.0000    0.0682    0.0000   -0.0065    0.0000    0.0303    0.0000
z     0.0022    0.0000   -0.0038    0.0000    0.0009    0.0000    0.0027   -0.0000   -0.0000    0.0000
z    -0.0006    0.0000   -0.0011    0.0000    0.0006   -0.0000   -0.0007   -0.0000   -0.0005   -0.0000
z     0.0004    0.0000   -0.0003    0.0000   -0.0001   -0.0000    0.0001    0.0000    0.0002
 
 pseudopotential strength for first ion, spin component:           1
-14.191  -0.003  -0.009   0.003  -0.005   0.175  -0.001   0.002
 -0.003 -14.191  -0.009  -0.003   0.005  -0.001   0.175   0.001
 -0.009  -0.009 -14.174  -0.000   0.000   0.002   0.001   0.174
  0.003  -0.003  -0.000 -14.191   0.010   0.001  -0.001  -0.001
 -0.005   0.005   0.000   0.010 -14.174   0.000  -0.001  -0.000
  0.175  -0.001   0.002   0.001   0.000   0.311  -0.001  -0.000
 -0.001   0.175   0.001  -0.001  -0.001  -0.001   0.311  -0.001
  0.002   0.001   0.174  -0.001  -0.000  -0.000  -0.001   0.313
  0.001  -0.001  -0.001   0.175  -0.001   0.001  -0.001  -0.000
  0.000  -0.001  -0.000  -0.001   0.174  -0.000   0.000   0.000
 -0.002   0.002  -0.000  -0.002   0.000   0.000  -0.000   0.000
  0.000  -0.000   0.000   0.000  -0.000  -0.000   0.000  -0.000
 -0.000  -0.000   0.000   0.000   0.000   0.000   0.000  -0.000
  0.000  -0.000  -0.000  -0.000   0.000  -0.000   0.000   0.000
 -0.000   0.000   0.000  -0.000  -0.000   0.000  -0.000  -0.000
  0.000   0.000  -0.000  -0.000  -0.000  -0.000  -0.000   0.000
 -0.000   0.000   0.000   0.000  -0.000   0.000  -0.000  -0.000
  0.000  -0.000  -0.000  -0.000   0.000  -0.000   0.000   0.000
 total augmentation occupancy for first ion, spin component:           1
  2.082   0.003   0.001  -0.002   0.001   0.131  -0.012   0.001   0.011  -0.008  -0.038   0.000  -0.000  -0.000   0.000  -0.000
  0.003   2.083   0.001   0.003   0.001  -0.012   0.130  -0.007  -0.012  -0.005   0.037   0.000   0.000   0.000  -0.000   0.000
  0.001   0.001   2.078   0.001   0.000   0.001  -0.007   0.152  -0.008  -0.000  -0.001   0.001   0.000   0.000   0.000   0.000
 -0.002   0.003   0.001   2.082  -0.000   0.011  -0.012  -0.008   0.130   0.003  -0.040   0.002  -0.000  -0.000   0.000  -0.000
  0.001   0.001   0.000  -0.000   2.078  -0.008  -0.006  -0.000   0.003   0.152   0.000  -0.000  -0.000  -0.000   0.000  -0.000
  0.131  -0.012   0.001   0.011  -0.008   0.067   0.017  -0.001  -0.017   0.014   0.020  -0.020  -0.000  -0.000   0.000  -0.000
 -0.012   0.130  -0.007  -0.012  -0.006   0.017   0.067   0.012   0.017   0.008  -0.020   0.020  -0.000   0.000   0.000  -0.000
  0.001  -0.007   0.152  -0.008  -0.000  -0.001   0.012   0.031   0.013  -0.000  -0.001  -0.000   0.000   0.000   0.000   0.000
  0.011  -0.012  -0.008   0.130   0.003  -0.017   0.017   0.013   0.067  -0.007   0.018  -0.021  -0.000   0.000  -0.000   0.000
 -0.008  -0.005  -0.000   0.003   0.152   0.014   0.008  -0.000  -0.007   0.031   0.000   0.000  -0.000   0.000   0.000  -0.000
 -0.038   0.037  -0.001  -0.040   0.000   0.020  -0.020  -0.001   0.018   0.000   0.147  -0.125   0.000   0.000  -0.000   0.000
  0.000   0.000   0.001   0.002  -0.000  -0.020   0.020  -0.000  -0.021   0.000  -0.125   0.119   0.000  -0.000   0.000  -0.000
 -0.000   0.000   0.000  -0.000  -0.000  -0.000  -0.000   0.000  -0.000  -0.000   0.000   0.000   0.019  -0.004   0.004  -0.002
 -0.000   0.000   0.000  -0.000  -0.000  -0.000   0.000   0.000   0.000   0.000   0.000  -0.000  -0.004   0.020   0.004   0.001
  0.000  -0.000   0.000   0.000   0.000   0.000   0.000   0.000  -0.000   0.000  -0.000   0.000   0.004   0.004   0.019  -0.001
 -0.000   0.000   0.000  -0.000  -0.000  -0.000  -0.000   0.000   0.000  -0.000   0.000  -0.000  -0.002   0.001  -0.001   0.000
 -0.000   0.000   0.000  -0.000  -0.000  -0.000   0.000  -0.000   0.000  -0.000   0.000  -0.000   0.001  -0.002  -0.001  -0.000
  0.000  -0.000   0.000   0.000   0.000   0.000   0.000  -0.000  -0.000   0.000  -0.000   0.000  -0.001  -0.001  -0.002   0.000


------------------------ aborting loop because EDIFF is reached ----------------------------------------


 


 total charge     
 
# of ion     s       p       d       tot
----------------------------------------
  1        0.052   0.039   9.468   9.559
  2        0.052   0.039   9.468   9.559
  3        0.052   0.039   9.470   9.561
  4        0.052   0.039   9.467   9.558
  5        1.743   4.336   0.000   6.080
  6        1.743   4.340   0.000   6.083
  7        1.743   4.339   0.000   6.082
  8        1.743   4.338   0.000   6.081
  9        1.743   4.339   0.000   6.082
 10        1.743   4.337   0.000   6.080
 11        1.743   4.338   0.000   6.081
 12        1.743   4.339   0.000   6.082
 13        1.743   4.339   0.000   6.082
 14        1.743   4.338   0.000   6.081
 15        1.743   4.339   0.000   6.082
 16        1.743   4.337   0.000   6.080
 17        1.743   4.336   0.000   6.080
 18        1.743   4.340   0.000   6.083
 19        1.743   4.339   0.000   6.082
 20        1.743   4.338   0.000   6.081
 21        1.743   4.339   0.000   6.082
 22        1.743   4.337   0.000   6.080
 23        1.743   4.338   0.000   6.081
 24        1.743   4.339   0.000   6.082
 25        1.743   4.339   0.000   6.082
 26        1.743   4.338   0.000   6.081
 27        1.743   4.339   0.000   6.082
 28        1.743   4.337   0.000   6.080
 29        0.879   0.977   0.301   2.157
 30        0.878   0.978   0.301   2.157
 31        0.876   0.979   0.301   2.156
 32        0.879   0.977   0.301   2.158
------------------------------------------------
tot       45.552 108.184  39.078 192.814
 


--------------------------------------------------------------------------------------------------------


    CHARGE:  VPU time   43.07: CPU time   43.11
    FORLOC:  VPU time    0.17: CPU time    0.17
    FORNL :  VPU time  184.51: CPU time  184.65
    STRESS:  VPU time  423.11: CPU time  423.71
    FORCOR:  VPU time    0.71: CPU time    0.71
    FORHAR:  VPU time    0.33: CPU time    0.33
    MIXING:  VPU time    0.04: CPU time    0.04


--------------------------------------------------------------------------------------------------------



  FREE ENERGIE OF THE ION-ELECTRON SYSTEM (eV)
  ---------------------------------------------------
  free  energy   TOTEN  =      -131.176191 eV

  energy  without entropy=     -131.176191  energy(sigma->0) =     -131.176191
 

  FORCE on cell =-STRESS in cart. coord.  units (eV/reduce length):
  Direction    X        Y        Z        XY       YZ       ZX
  --------------------------------------------------------------------------------------
  Alpha Z    559.03    559.03    559.03
  Ewald    -4527.69  -4527.69  -4527.69     -0.00     -0.00     -0.00
  Hartree   2312.42   2312.42   2312.42     -0.00     -0.00     -0.00
  E(xc)    -1281.21  -1281.21  -1281.21     -0.00     -0.00     -0.00
  Local    -1230.66  -1230.66  -1230.66     -0.00     -0.00     -0.00
  n-local   -990.57   -990.58   -990.57      0.03     -0.06     -0.04
  augment    543.74    543.74    543.74      0.00      0.00      0.00
  Kinetic   4615.24   4615.26   4615.23     -0.10      0.23      0.13
  -------------------------------------------------------------------------------------
  Total        0.30      0.30      0.30      0.00      0.00      0.00
  in kB        0.98      0.98      0.98      0.00      0.00      0.00
  external pressure =        0.98 kB  Pullay stress =        0.00 kB


 VOLUME and BASIS-vectors are now :
 -----------------------------------------------------------------------------
  energy-cutoff  :      560.00
  volume of cell :      497.87
      direct lattice vectors                 reciprocal lattice vectors
    -4.992890462  4.992890462  4.992890462     0.000000000  0.100142393  0.100142393
     4.992890462 -4.992890462  4.992890462     0.100142393  0.000000000  0.100142393
     4.992890462  4.992890462 -4.992890462     0.100142393  0.100142393  0.000000000

  length of vectors
     8.647939956  8.647939956  8.647939956     0.141622731  0.141622731  0.141622731


 FORCES acting on ions
    electron-ion (+dipol)            ewald-force                    non-local-force                 convergence-correction
 -----------------------------------------------------------------------------------------------
   -.152E-11 -.155E-11 0.324E-12   0.148E-10 0.198E-10 -.791E-12   -.662E-23 -.496E-23 0.662E-23   -.118E-12 -.376E-12 -.122E-13
   0.101E-11 0.510E-12 0.114E-11   -.474E-11 -.407E-11 -.102E-10   -.331E-23 0.662E-23 -.993E-23   -.169E-13 -.424E-13 0.255E-12
   0.150E-11 -.105E-11 0.117E-11   -.965E-11 0.567E-11 -.107E-10   -.993E-23 0.331E-23 -.232E-22   0.117E-12 -.317E-14 -.321E-13
   0.602E-12 0.697E-12 -.985E-12   0.233E-12 -.502E-11 0.474E-11   -.149E-22 -.165E-23 0.149E-22   -.156E-12 0.218E-12 -.298E-12
   0.530E+01 0.466E+02 -.595E+02   -.132E+02 -.647E+02 0.832E+02   0.789E+01 0.181E+02 -.237E+02   -.290E-04 0.664E-04 -.931E-04
   -.530E+01 -.466E+02 -.595E+02   0.132E+02 0.647E+02 0.832E+02   -.789E+01 -.181E+02 -.237E+02   0.241E-04 -.679E-04 -.899E-04
   -.530E+01 0.466E+02 0.595E+02   0.132E+02 -.647E+02 -.832E+02   -.789E+01 0.181E+02 0.237E+02   0.366E-04 0.685E-04 0.981E-04
   0.530E+01 -.466E+02 0.595E+02   -.132E+02 0.647E+02 -.832E+02   0.789E+01 -.181E+02 0.237E+02   -.238E-04 -.642E-04 0.900E-04
   0.595E+02 -.530E+01 0.466E+02   -.832E+02 0.132E+02 -.647E+02   0.237E+02 -.789E+01 0.181E+02   0.934E-04 0.293E-04 0.666E-04
   0.595E+02 0.530E+01 -.466E+02   -.832E+02 -.132E+02 0.647E+02   0.237E+02 0.789E+01 -.181E+02   0.895E-04 -.244E-04 -.673E-04
   -.595E+02 0.530E+01 0.466E+02   0.832E+02 -.132E+02 -.647E+02   -.237E+02 0.789E+01 0.181E+02   -.978E-04 -.363E-04 0.683E-04
   -.595E+02 -.530E+01 -.466E+02   0.832E+02 0.132E+02 0.647E+02   -.237E+02 -.789E+01 -.181E+02   -.904E-04 0.235E-04 -.648E-04
   -.466E+02 -.595E+02 -.530E+01   0.647E+02 0.832E+02 0.132E+02   -.181E+02 -.237E+02 -.789E+01   -.669E-04 -.936E-04 0.286E-04
   0.466E+02 -.595E+02 0.530E+01   -.647E+02 0.832E+02 -.132E+02   0.181E+02 -.237E+02 0.789E+01   0.674E-04 -.893E-04 -.245E-04
   -.466E+02 0.595E+02 0.530E+01   0.647E+02 -.832E+02 -.132E+02   -.181E+02 0.237E+02 0.789E+01   -.682E-04 0.979E-04 -.362E-04
   0.466E+02 0.595E+02 -.530E+01   -.647E+02 -.832E+02 0.132E+02   0.181E+02 0.237E+02 -.789E+01   0.646E-04 0.902E-04 0.242E-04
   -.530E+01 -.466E+02 0.595E+02   0.132E+02 0.647E+02 -.832E+02   -.789E+01 -.181E+02 0.237E+02   0.290E-04 -.664E-04 0.931E-04
   0.530E+01 0.466E+02 0.595E+02   -.132E+02 -.647E+02 -.832E+02   0.789E+01 0.181E+02 0.237E+02   -.241E-04 0.679E-04 0.899E-04
   0.530E+01 -.466E+02 -.595E+02   -.132E+02 0.647E+02 0.832E+02   0.789E+01 -.181E+02 -.237E+02   -.366E-04 -.685E-04 -.981E-04
   -.530E+01 0.466E+02 -.595E+02   0.132E+02 -.647E+02 0.832E+02   -.789E+01 0.181E+02 -.237E+02   0.238E-04 0.642E-04 -.900E-04
   -.595E+02 0.530E+01 -.466E+02   0.832E+02 -.132E+02 0.647E+02   -.237E+02 0.789E+01 -.181E+02   -.934E-04 -.293E-04 -.666E-04
   -.595E+02 -.530E+01 0.466E+02   0.832E+02 0.132E+02 -.647E+02   -.237E+02 -.789E+01 0.181E+02   -.895E-04 0.244E-04 0.673E-04
   0.595E+02 -.530E+01 -.466E+02   -.832E+02 0.132E+02 0.647E+02   0.237E+02 -.789E+01 -.181E+02   0.978E-04 0.363E-04 -.683E-04
   0.595E+02 0.530E+01 0.466E+02   -.832E+02 -.132E+02 -.647E+02   0.237E+02 0.789E+01 0.181E+02   0.904E-04 -.235E-04 0.648E-04
   0.466E+02 0.595E+02 0.530E+01   -.647E+02 -.832E+02 -.132E+02   0.181E+02 0.237E+02 0.789E+01   0.669E-04 0.936E-04 -.286E-04
   -.466E+02 0.595E+02 -.530E+01   0.647E+02 -.832E+02 0.132E+02   -.181E+02 0.237E+02 -.789E+01   -.674E-04 0.893E-04 0.245E-04
   0.466E+02 -.595E+02 -.530E+01   -.647E+02 0.832E+02 0.132E+02   0.181E+02 -.237E+02 -.789E+01   0.682E-04 -.979E-04 0.362E-04
   -.466E+02 -.595E+02 0.530E+01   0.647E+02 0.832E+02 -.132E+02   -.181E+02 -.237E+02 0.789E+01   -.646E-04 -.902E-04 -.242E-04
   0.456E-12 -.155E-11 0.915E-12   -.517E-11 0.170E-10 -.102E-10   0.000E+00 0.000E+00 0.265E-22   -.115E-12 -.241E-13 0.337E-13
   -.469E-12 -.806E-12 0.123E-11   0.397E-11 0.938E-11 -.124E-10   -.132E-22 0.132E-22 -.132E-22   0.545E-14 0.238E-13 -.668E-13
   0.281E-12 -.463E-12 0.471E-12   -.455E-11 0.624E-11 -.407E-11   -.529E-22 0.662E-23 0.199E-22   0.108E-12 -.728E-13 0.641E-13
   -.167E-12 0.283E-12 -.145E-12   0.430E-12 -.222E-11 0.187E-11   -.223E-22 0.414E-23 0.223E-22   -.239E-13 0.730E-13 -.272E-13
 -----------------------------------------------------------------------------------------------
   0.141E-10 0.193E-10 -.248E-11   -.655E-13 -.301E-13 -.766E-13   0.107E-13 0.240E-22 0.133E-13   -.215E-11 -.432E-12 -.389E-12
 
 
 POSITION                                       TOTAL-FORCE (eV/Angst)
 -----------------------------------------------------------------------------------
     -2.49645      2.49645      2.49645         0.000000      0.000000     -0.000000
      2.49645      2.49645      2.49645        -0.000000      0.000000     -0.000000
      2.49645     -2.49645      2.49645        -0.000000     -0.000000      0.000000
      2.49645      2.49645     -2.49645         0.000000     -0.000000      0.000000
     -0.61702      3.85226      1.41964        -0.006844     -0.017778     -0.002263
      0.61702      1.14063      1.41964         0.006844      0.017778     -0.002263
      5.60991      3.85226     -1.41964         0.006844     -0.017778      0.002263
     -0.61702      6.13352      3.57325        -0.006844      0.017778      0.002263
      3.57325      5.60991     -1.14063         0.002263      0.006844     -0.017778
      8.56614     -0.61702      1.14063         0.002263     -0.006844      0.017778
      1.41964      4.37587      3.85226        -0.002263     -0.006844     -0.017778
      1.41964      5.60991      1.14063        -0.002263      0.006844      0.017778
      6.13352      1.41964      0.61702         0.017778     -0.002263      0.006844
      3.85226     -3.57325      4.37587        -0.017778     -0.002263     -0.006844
      1.14063      3.57325     -0.61702         0.017778      0.002263     -0.006844
      3.85226      3.57325      0.61702        -0.017778      0.002263      0.006844
      5.60991      1.14063      3.57325         0.006844      0.017778      0.002263
      4.37587      3.85226      3.57325        -0.006844     -0.017778      0.002263
     -0.61702      1.14063      6.41253        -0.006844      0.017778     -0.002263
      5.60991     -1.14063      1.41964         0.006844     -0.017778     -0.002263
      1.41964     -0.61702      6.13352        -0.002263     -0.006844      0.017778
     -3.57325      5.60991      3.85226        -0.002263      0.006844     -0.017778
      3.57325      0.61702      1.14063         0.002263      0.006844      0.017778
      3.57325     -0.61702      3.85226         0.002263     -0.006844     -0.017778
     -1.14063      3.57325      4.37587        -0.017778      0.002263     -0.006844
      1.14063      8.56614      0.61702         0.017778      0.002263      0.006844
      3.85226      1.41964      5.60991        -0.017778     -0.002263      0.006844
      1.14063      1.41964      4.37587         0.017778     -0.002263     -0.006844
      0.00000      0.00000      0.00000        -0.000000      0.000000      0.000000
      0.00000      4.99289      0.00000         0.000000      0.000000      0.000000
      4.99289      0.00000      0.00000        -0.000000     -0.000000     -0.000000
      0.00000      0.00000      4.99289        -0.000000      0.000000     -0.000000
 -----------------------------------------------------------------------------------
    total drift:                                0.000000      0.000000     -0.000000


--------------------------------------------------------------------------------------------------------



 mean value of Nose-termostat <S>:     1.000 mean value of <T> :     0.000
 mean temperature <T/S>/<1/S>  :     0.000

     LOOP+:  VPU time12926.55: CPU time12947.72
 


 total charge     
 
# of ion     s       p       d       tot
----------------------------------------
  1        0.052   0.039   9.468   9.559
  2        0.052   0.039   9.468   9.559
  3        0.052   0.039   9.470   9.561
  4        0.052   0.039   9.467   9.558
  5        1.743   4.336   0.000   6.080
  6        1.743   4.340   0.000   6.083
  7        1.743   4.339   0.000   6.082
  8        1.743   4.338   0.000   6.081
  9        1.743   4.339   0.000   6.082
 10        1.743   4.337   0.000   6.080
 11        1.743   4.338   0.000   6.081
 12        1.743   4.339   0.000   6.082
 13        1.743   4.339   0.000   6.082
 14        1.743   4.338   0.000   6.081
 15        1.743   4.339   0.000   6.082
 16        1.743   4.337   0.000   6.080
 17        1.743   4.336   0.000   6.080
 18        1.743   4.340   0.000   6.083
 19        1.743   4.339   0.000   6.082
 20        1.743   4.338   0.000   6.081
 21        1.743   4.339   0.000   6.082
 22        1.743   4.337   0.000   6.080
 23        1.743   4.338   0.000   6.081
 24        1.743   4.339   0.000   6.082
 25        1.743   4.339   0.000   6.082
 26        1.743   4.338   0.000   6.081
 27        1.743   4.339   0.000   6.082
 28        1.743   4.337   0.000   6.080
 29        0.879   0.977   0.301   2.157
 30        0.878   0.978   0.301   2.157
 31        0.876   0.979   0.301   2.156
 32        0.879   0.977   0.301   2.158
------------------------------------------------
tot       45.552 108.184  39.078 192.814
 
 BZINTS: Fermi energy: -2.032532;232.000000 electrons
         Band energy:***********;  BLOECHL correction:  0.000000
  
  
 General timing and accounting informations for this job:
 ========================================================
  
                  Total CPU time used (sec):    13018.515
                            User time (sec):    12817.098
                          System time (sec):      201.417
                         Elapsed time (sec):    13044.233
  
                   Maximum memory used (kb):     1571332.
                   Average memory used (kb):           0.
  
                          Minor page faults:     12636619
                          Major page faults:            0
                 Voluntary context switches:         1630
