 vasp.4.6.35 3Apr08 complex 
 executed on             LinuxIFC date 2014.03.28  21:03:16
 running on   16 nodes
 distr:  one band on    8 nodes,    2 groups


--------------------------------------------------------------------------------------------------------


 INCAR:
 POTCAR:   PAW_PBE La 06Sep2000                   
 POTCAR:   PAW_PBE Si 05Jan2001                   
 POTCAR:   PAW_PBE La 06Sep2000                   
   VRHFIN =La : [core=Kr4d]                                                     
   LEXCH  = PE                                                                  
   EATOM  =   865.2204 eV,   63.5919 Ry                                         
                                                                                
   TITEL  = PAW_PBE La 06Sep2000                                                
   LULTRA =        F    use ultrasoft PP ?                                      
   IUNSCR =        1    unscreen: 0-lin 1-nonlin 2-no                           
   RPACOR =    2.300    partial core radius                                     
   POMASS =  138.900; ZVAL   =   11.000    mass and valenz                      
   RCORE  =    2.800    outmost cutoff radius                                   
   RWIGS  =    2.900; RWIGS  =    1.535    wigner-seitz radius (au A)           
   ENMAX  =  219.313; ENMIN  =  164.485 eV                                      
   RCLOC  =    1.601    cutoff for local pot                                    
   LCOR   =        T    correct aug charges                                     
   LPAW   =        T    paw PP                                                  
   EAUG   =  583.575                                                            
   DEXC   =     .000                                                            
   RMAX   =    3.113    core radius for proj-oper                               
   RAUG   =    1.300    factor for augmentation sphere                          
   RDEP   =    2.802    radius for radial grids                                 
   QCUT   =   -4.015; QGAM   =    8.030    optimization parameters              
                                                                                
   Description                                                                  
     l     E      TYP  RCUT    TYP  RCUT                                        
     0   .000     23  2.800                                                     
     0   .000     23  2.800                                                     
     1   .000     23  2.500                                                     
     1  2.000     23  2.500                                                     
     2   .000     23  2.500                                                     
     2   .000     23  2.500                                                     
     3   .000     23  2.800                                                     
     3   .000     23  2.800                                                     
  local pseudopotential read in
  partial core-charges read in
  atomic valenz-charges read in
  non local Contribution for L=           0  read in
    real space projection operators read in
  non local Contribution for L=           0  read in
    real space projection operators read in
  non local Contribution for L=           1  read in
    real space projection operators read in
  non local Contribution for L=           1  read in
    real space projection operators read in
  non local Contribution for L=           2  read in
    real space projection operators read in
  non local Contribution for L=           2  read in
    real space projection operators read in
  non local Contribution for L=           3  read in
    real space projection operators read in
  non local Contribution for L=           3  read in
    real space projection operators read in
    PAW grid and wavefunctions read in
 
   number of l-projection  operators is LMAX  =           8
   number of lm-projection operators is LMMAX =          32
 
 POTCAR:   PAW_PBE Si 05Jan2001                   
   VRHFIN =Si: s2p2                                                             
   LEXCH  = PE                                                                  
   EATOM  =   103.0669 eV,    7.5752 Ry                                         
                                                                                
   TITEL  = PAW_PBE Si 05Jan2001                                                
   LULTRA =        F    use ultrasoft PP ?                                      
   IUNSCR =        1    unscreen: 0-lin 1-nonlin 2-no                           
   RPACOR =    1.500    partial core radius                                     
   POMASS =   28.085; ZVAL   =    4.000    mass and valenz                      
   RCORE  =    1.900    outmost cutoff radius                                   
   RWIGS  =    2.480; RWIGS  =    1.312    wigner-seitz radius (au A)           
   ENMAX  =  245.345; ENMIN  =  184.009 eV                                      
   ICORE  =        2    local potential                                         
   LCOR   =        T    correct aug charges                                     
   LPAW   =        T    paw PP                                                  
   EAUG   =  322.069                                                            
   DEXC   =    -.007                                                            
   RMAX   =    2.944    core radius for proj-oper                               
   RAUG   =    1.300    factor for augmentation sphere                          
   RDEP   =    1.993    radius for radial grids                                 
   QCUT   =   -4.246; QGAM   =    8.493    optimization parameters              
                                                                                
   Description                                                                  
     l     E      TYP  RCUT    TYP  RCUT                                        
     0   .000     23  1.900                                                     
     0   .000     23  1.900                                                     
     1   .000     23  1.900                                                     
     1   .000     23  1.900                                                     
     2   .000      7  1.900                                                     
  local pseudopotential read in
  partial core-charges read in
  atomic valenz-charges read in
  non local Contribution for L=           0  read in
    real space projection operators read in
  non local Contribution for L=           0  read in
    real space projection operators read in
  non local Contribution for L=           1  read in
    real space projection operators read in
  non local Contribution for L=           1  read in
    real space projection operators read in
    PAW grid and wavefunctions read in
 
   number of l-projection  operators is LMAX  =           4
   number of lm-projection operators is LMMAX =           8
 

 ----------------------------------------------------------------------------- 
|                                                                             |
|  ADVICE TO THIS USER RUNNING 'VASP/VAMP'   (HEAR YOUR MASTER'S VOICE ...):  |
|                                                                             |
|      You have a (more or less) 'large supercell' and for larger cells       |
|      it might be more efficient to use real space projection operators      |
|      So try LREAL= Auto  in the INCAR   file.                               |
|      Mind: If you want to do an extremely accurate calculations keep the    |
|      reciprocal projection scheme          (i.e. LREAL=.FALSE.)             |
|                                                                             |
 ----------------------------------------------------------------------------- 

 PAW_PBE La 06Sep2000                   :
 energy of atom  1       EATOM= -865.2204
 kinetic energy error for atom=    0.0039 (will be added to EATOM!!)
 PAW_PBE Si 05Jan2001                   :
 energy of atom  2       EATOM= -103.0669
 kinetic energy error for atom=    0.0013 (will be added to EATOM!!)
 
 EXHCAR: internal setup
 exchange correlation table for  LEXCH =        8
   RHO(1)=    0.500       N(1)  =     2000
   RHO(2)=  100.500       N(2)  =     4000
 
 POSCAR: La1Si10 #194 - (La1Si10_ICSD_246806) - L
  positions in direct lattice
  No initial velocities read in
 


--------------------------------------------------------------------------------------------------------


 ion  position               nearest neighbor table
   1  0.333  0.667  0.250-   8 3.16  10 3.16   9 3.16  19 3.17  17 3.17  18 3.17   5 3.38   5 3.38
                             7 3.38   7 3.38   6 3.38   6 3.38
   2  0.667  0.333  0.750-   5 3.16   7 3.16   6 3.16  22 3.17  20 3.17  21 3.17   8 3.38   8 3.38
                            10 3.38  10 3.38   9 3.38   9 3.38
   3  0.000  0.000  0.250-  19 2.38  17 2.38  18 2.38   4 2.39   4 2.39  16 3.05  15 3.05  14 3.05

   4  0.000  0.000  0.750-  22 2.38  20 2.38  21 2.38   3 2.39   3 2.39  13 3.05  12 3.05  11 3.05

   5  0.046  0.523  0.750-  13 2.45  11 2.45   8 2.51   8 2.51   2 3.16   1 3.38   1 3.38
   6  0.477  0.523  0.750-  11 2.45  12 2.45   9 2.51   9 2.51   2 3.16   1 3.38   1 3.38
   7  0.477  0.954  0.750-  12 2.45  13 2.45  10 2.51  10 2.51   2 3.16   1 3.38   1 3.38
   8  0.954  0.477  0.250-  16 2.45  14 2.45   5 2.51   5 2.51   1 3.16   2 3.38   2 3.38
   9  0.523  0.477  0.250-  14 2.45  15 2.45   6 2.51   6 2.51   1 3.16   2 3.38   2 3.38
  10  0.523  0.046  0.250-  15 2.45  16 2.45   7 2.51   7 2.51   1 3.16   2 3.38   2 3.38
  11  0.183  0.366  0.750-   6 2.45   5 2.45  17 2.48  17 2.48  21 2.77  22 2.78   4 3.05
  12  0.634  0.817  0.750-   7 2.45   6 2.45  18 2.48  18 2.48  22 2.77  20 2.78   4 3.05
  13  0.183  0.817  0.750-   5 2.45   7 2.45  19 2.48  19 2.48  20 2.77  21 2.78   4 3.05
  14  0.817  0.634  0.250-   9 2.45   8 2.45  20 2.48  20 2.48  18 2.77  19 2.78   3 3.05
  15  0.366  0.183  0.250-  10 2.45   9 2.45  21 2.48  21 2.48  19 2.77  17 2.78   3 3.05
  16  0.817  0.183  0.250-   8 2.45  10 2.45  22 2.48  22 2.48  17 2.77  18 2.78   3 3.05
  17  0.143  0.286  0.250-   3 2.38  11 2.48  11 2.48  16 2.77  15 2.78   1 3.17
  18  0.714  0.857  0.250-   3 2.38  12 2.48  12 2.48  14 2.77  16 2.78   1 3.17
  19  0.143  0.857  0.250-   3 2.38  13 2.48  13 2.48  15 2.77  14 2.78   1 3.17
  20  0.857  0.714  0.750-   4 2.38  14 2.48  14 2.48  13 2.77  12 2.78   2 3.17
  21  0.286  0.143  0.750-   4 2.38  15 2.48  15 2.48  11 2.77  13 2.78   2 3.17
  22  0.857  0.143  0.750-   4 2.38  16 2.48  16 2.48  12 2.77  11 2.78   2 3.17
 
  LATTYP: Found a hexagonal cell.
 ALAT       =     9.6090743091
 C/A-ratio  =     0.4973269779
  
  Lattice vectors:
  
 A1 = (   4.8045371545,  -8.3217024585,   0.0000000000)
 A2 = (   4.8045371545,   8.3217024585,   0.0000000000)
 A3 = (   0.0000000000,   0.0000000000,   4.7788518863)
 Subroutine PRICEL returns:
 Original cell was already a primitive cell.
 

Analysis of symmetry for initial positions (statically):

 Routine SETGRP: Setting up the symmetry group for a 
 hexagonal supercell.


 Subroutine GETGRP returns: Found  4 space group operations
 (whereof  2 operations were pure point group operations)
 out of a pool of 24 trial point group operations.


The static configuration has the point symmetry S_2 .
 The point group associated with its full space group is C_2h.

Analysis of symmetry for dynamics (positions and initial velocities):

 Subroutine DYNSYM returns: Found  4 space group operations
 (whereof  2 operations were pure point group operations)
 out of a pool of  4 trial space group operations
 (whereof  2 operations were pure point group operations)
 and found also     1 'primitive' translations


The dynamic configuration has the point symmetry S_2 .
 The point group associated with its full space group is C_2h.
 
 
 KPOINTS: KPOINTS File, automatically generated by

Automatic generation of k-mesh.
 
 Subroutine IBZKPT returns following result:
 ===========================================
 
 Found    175 irreducible k-points:
 
 Following reciprocal coordinates:
            Coordinates               Weight
  0.000000  0.000000  0.000000      1.000000
  0.142857  0.000000  0.000000      2.000000
  0.285714  0.000000  0.000000      2.000000
  0.428571  0.000000  0.000000      2.000000
  0.000000  0.142857  0.000000      2.000000
  0.142857  0.142857  0.000000      2.000000
  0.285714  0.142857  0.000000      2.000000
  0.428571  0.142857  0.000000      2.000000
 -0.428571  0.142857  0.000000      2.000000
 -0.285714  0.142857  0.000000      2.000000
 -0.142857  0.142857  0.000000      2.000000
  0.000000  0.285714  0.000000      2.000000
  0.142857  0.285714  0.000000      2.000000
  0.285714  0.285714  0.000000      2.000000
  0.428571  0.285714  0.000000      2.000000
 -0.428571  0.285714  0.000000      2.000000
 -0.285714  0.285714  0.000000      2.000000
 -0.142857  0.285714  0.000000      2.000000
  0.000000  0.428571  0.000000      2.000000
  0.142857  0.428571  0.000000      2.000000
  0.285714  0.428571  0.000000      2.000000
  0.428571  0.428571  0.000000      2.000000
 -0.428571  0.428571  0.000000      2.000000
 -0.285714  0.428571  0.000000      2.000000
 -0.142857  0.428571  0.000000      2.000000
  0.000000  0.000000  0.083333      2.000000
  0.142857  0.000000  0.083333      4.000000
  0.285714  0.000000  0.083333      4.000000
  0.428571  0.000000  0.083333      4.000000
  0.000000  0.142857  0.083333      4.000000
  0.142857  0.142857  0.083333      4.000000
  0.285714  0.142857  0.083333      4.000000
  0.428571  0.142857  0.083333      4.000000
 -0.428571  0.142857  0.083333      4.000000
 -0.285714  0.142857  0.083333      4.000000
 -0.142857  0.142857  0.083333      4.000000
  0.000000  0.285714  0.083333      4.000000
  0.142857  0.285714  0.083333      4.000000
  0.285714  0.285714  0.083333      4.000000
  0.428571  0.285714  0.083333      4.000000
 -0.428571  0.285714  0.083333      4.000000
 -0.285714  0.285714  0.083333      4.000000
 -0.142857  0.285714  0.083333      4.000000
  0.000000  0.428571  0.083333      4.000000
  0.142857  0.428571  0.083333      4.000000
  0.285714  0.428571  0.083333      4.000000
  0.428571  0.428571  0.083333      4.000000
 -0.428571  0.428571  0.083333      4.000000
 -0.285714  0.428571  0.083333      4.000000
 -0.142857  0.428571  0.083333      4.000000
  0.000000  0.000000  0.166667      2.000000
  0.142857  0.000000  0.166667      4.000000
  0.285714  0.000000  0.166667      4.000000
  0.428571  0.000000  0.166667      4.000000
  0.000000  0.142857  0.166667      4.000000
  0.142857  0.142857  0.166667      4.000000
  0.285714  0.142857  0.166667      4.000000
  0.428571  0.142857  0.166667      4.000000
 -0.428571  0.142857  0.166667      4.000000
 -0.285714  0.142857  0.166667      4.000000
 -0.142857  0.142857  0.166667      4.000000
  0.000000  0.285714  0.166667      4.000000
  0.142857  0.285714  0.166667      4.000000
  0.285714  0.285714  0.166667      4.000000
  0.428571  0.285714  0.166667      4.000000
 -0.428571  0.285714  0.166667      4.000000
 -0.285714  0.285714  0.166667      4.000000
 -0.142857  0.285714  0.166667      4.000000
  0.000000  0.428571  0.166667      4.000000
  0.142857  0.428571  0.166667      4.000000
  0.285714  0.428571  0.166667      4.000000
  0.428571  0.428571  0.166667      4.000000
 -0.428571  0.428571  0.166667      4.000000
 -0.285714  0.428571  0.166667      4.000000
 -0.142857  0.428571  0.166667      4.000000
  0.000000  0.000000  0.250000      2.000000
  0.142857  0.000000  0.250000      4.000000
  0.285714  0.000000  0.250000      4.000000
  0.428571  0.000000  0.250000      4.000000
  0.000000  0.142857  0.250000      4.000000
  0.142857  0.142857  0.250000      4.000000
  0.285714  0.142857  0.250000      4.000000
  0.428571  0.142857  0.250000      4.000000
 -0.428571  0.142857  0.250000      4.000000
 -0.285714  0.142857  0.250000      4.000000
 -0.142857  0.142857  0.250000      4.000000
  0.000000  0.285714  0.250000      4.000000
  0.142857  0.285714  0.250000      4.000000
  0.285714  0.285714  0.250000      4.000000
  0.428571  0.285714  0.250000      4.000000
 -0.428571  0.285714  0.250000      4.000000
 -0.285714  0.285714  0.250000      4.000000
 -0.142857  0.285714  0.250000      4.000000
  0.000000  0.428571  0.250000      4.000000
  0.142857  0.428571  0.250000      4.000000
  0.285714  0.428571  0.250000      4.000000
  0.428571  0.428571  0.250000      4.000000
 -0.428571  0.428571  0.250000      4.000000
 -0.285714  0.428571  0.250000      4.000000
 -0.142857  0.428571  0.250000      4.000000
  0.000000  0.000000  0.333333      2.000000
  0.142857  0.000000  0.333333      4.000000
  0.285714  0.000000  0.333333      4.000000
  0.428571  0.000000  0.333333      4.000000
  0.000000  0.142857  0.333333      4.000000
  0.142857  0.142857  0.333333      4.000000
  0.285714  0.142857  0.333333      4.000000
  0.428571  0.142857  0.333333      4.000000
 -0.428571  0.142857  0.333333      4.000000
 -0.285714  0.142857  0.333333      4.000000
 -0.142857  0.142857  0.333333      4.000000
  0.000000  0.285714  0.333333      4.000000
  0.142857  0.285714  0.333333      4.000000
  0.285714  0.285714  0.333333      4.000000
  0.428571  0.285714  0.333333      4.000000
 -0.428571  0.285714  0.333333      4.000000
 -0.285714  0.285714  0.333333      4.000000
 -0.142857  0.285714  0.333333      4.000000
  0.000000  0.428571  0.333333      4.000000
  0.142857  0.428571  0.333333      4.000000
  0.285714  0.428571  0.333333      4.000000
  0.428571  0.428571  0.333333      4.000000
 -0.428571  0.428571  0.333333      4.000000
 -0.285714  0.428571  0.333333      4.000000
 -0.142857  0.428571  0.333333      4.000000
  0.000000  0.000000  0.416667      2.000000
  0.142857  0.000000  0.416667      4.000000
  0.285714  0.000000  0.416667      4.000000
  0.428571  0.000000  0.416667      4.000000
  0.000000  0.142857  0.416667      4.000000
  0.142857  0.142857  0.416667      4.000000
  0.285714  0.142857  0.416667      4.000000
  0.428571  0.142857  0.416667      4.000000
 -0.428571  0.142857  0.416667      4.000000
 -0.285714  0.142857  0.416667      4.000000
 -0.142857  0.142857  0.416667      4.000000
  0.000000  0.285714  0.416667      4.000000
  0.142857  0.285714  0.416667      4.000000
  0.285714  0.285714  0.416667      4.000000
  0.428571  0.285714  0.416667      4.000000
 -0.428571  0.285714  0.416667      4.000000
 -0.285714  0.285714  0.416667      4.000000
 -0.142857  0.285714  0.416667      4.000000
  0.000000  0.428571  0.416667      4.000000
  0.142857  0.428571  0.416667      4.000000
  0.285714  0.428571  0.416667      4.000000
  0.428571  0.428571  0.416667      4.000000
 -0.428571  0.428571  0.416667      4.000000
 -0.285714  0.428571  0.416667      4.000000
 -0.142857  0.428571  0.416667      4.000000
  0.000000  0.000000  0.500000      1.000000
  0.142857  0.000000  0.500000      2.000000
  0.285714  0.000000  0.500000      2.000000
  0.428571  0.000000  0.500000      2.000000
  0.000000  0.142857  0.500000      2.000000
  0.142857  0.142857  0.500000      2.000000
  0.285714  0.142857  0.500000      2.000000
  0.428571  0.142857  0.500000      2.000000
 -0.428571  0.142857  0.500000      2.000000
 -0.285714  0.142857  0.500000      2.000000
 -0.142857  0.142857  0.500000      2.000000
  0.000000  0.285714  0.500000      2.000000
  0.142857  0.285714  0.500000      2.000000
  0.285714  0.285714  0.500000      2.000000
  0.428571  0.285714  0.500000      2.000000
 -0.428571  0.285714  0.500000      2.000000
 -0.285714  0.285714  0.500000      2.000000
 -0.142857  0.285714  0.500000      2.000000
  0.000000  0.428571  0.500000      2.000000
  0.142857  0.428571  0.500000      2.000000
  0.285714  0.428571  0.500000      2.000000
  0.428571  0.428571  0.500000      2.000000
 -0.428571  0.428571  0.500000      2.000000
 -0.285714  0.428571  0.500000      2.000000
 -0.142857  0.428571  0.500000      2.000000
 
 Following cartesian coordinates:
            Coordinates               Weight
  0.000000  0.000000  0.000000      1.000000
  0.014867 -0.008583  0.000000      2.000000
  0.029734 -0.017167  0.000000      2.000000
  0.044601 -0.025750  0.000000      2.000000
  0.014867  0.008583  0.000000      2.000000
  0.029734  0.000000  0.000000      2.000000
  0.044601 -0.008583  0.000000      2.000000
  0.059468 -0.017167  0.000000      2.000000
 -0.029734  0.034334  0.000000      2.000000
 -0.014867  0.025750  0.000000      2.000000
  0.000000  0.017167  0.000000      2.000000
  0.029734  0.017167  0.000000      2.000000
  0.044601  0.008583  0.000000      2.000000
  0.059468  0.000000  0.000000      2.000000
  0.074334 -0.008583  0.000000      2.000000
 -0.014867  0.042917  0.000000      2.000000
  0.000000  0.034334  0.000000      2.000000
  0.014867  0.025750  0.000000      2.000000
  0.044601  0.025750  0.000000      2.000000
  0.059468  0.017167  0.000000      2.000000
  0.074334  0.008583  0.000000      2.000000
  0.089201  0.000000  0.000000      2.000000
  0.000000  0.051500  0.000000      2.000000
  0.014867  0.042917  0.000000      2.000000
  0.029734  0.034334  0.000000      2.000000
  0.000000  0.000000  0.017438      2.000000
  0.014867 -0.008583  0.017438      4.000000
  0.029734 -0.017167  0.017438      4.000000
  0.044601 -0.025750  0.017438      4.000000
  0.014867  0.008583  0.017438      4.000000
  0.029734  0.000000  0.017438      4.000000
  0.044601 -0.008583  0.017438      4.000000
  0.059468 -0.017167  0.017438      4.000000
 -0.029734  0.034334  0.017438      4.000000
 -0.014867  0.025750  0.017438      4.000000
  0.000000  0.017167  0.017438      4.000000
  0.029734  0.017167  0.017438      4.000000
  0.044601  0.008583  0.017438      4.000000
  0.059468  0.000000  0.017438      4.000000
  0.074334 -0.008583  0.017438      4.000000
 -0.014867  0.042917  0.017438      4.000000
  0.000000  0.034334  0.017438      4.000000
  0.014867  0.025750  0.017438      4.000000
  0.044601  0.025750  0.017438      4.000000
  0.059468  0.017167  0.017438      4.000000
  0.074334  0.008583  0.017438      4.000000
  0.089201  0.000000  0.017438      4.000000
  0.000000  0.051500  0.017438      4.000000
  0.014867  0.042917  0.017438      4.000000
  0.029734  0.034334  0.017438      4.000000
  0.000000  0.000000  0.034876      2.000000
  0.014867 -0.008583  0.034876      4.000000
  0.029734 -0.017167  0.034876      4.000000
  0.044601 -0.025750  0.034876      4.000000
  0.014867  0.008583  0.034876      4.000000
  0.029734  0.000000  0.034876      4.000000
  0.044601 -0.008583  0.034876      4.000000
  0.059468 -0.017167  0.034876      4.000000
 -0.029734  0.034334  0.034876      4.000000
 -0.014867  0.025750  0.034876      4.000000
  0.000000  0.017167  0.034876      4.000000
  0.029734  0.017167  0.034876      4.000000
  0.044601  0.008583  0.034876      4.000000
  0.059468  0.000000  0.034876      4.000000
  0.074334 -0.008583  0.034876      4.000000
 -0.014867  0.042917  0.034876      4.000000
  0.000000  0.034334  0.034876      4.000000
  0.014867  0.025750  0.034876      4.000000
  0.044601  0.025750  0.034876      4.000000
  0.059468  0.017167  0.034876      4.000000
  0.074334  0.008583  0.034876      4.000000
  0.089201  0.000000  0.034876      4.000000
  0.000000  0.051500  0.034876      4.000000
  0.014867  0.042917  0.034876      4.000000
  0.029734  0.034334  0.034876      4.000000
  0.000000  0.000000  0.052314      2.000000
  0.014867 -0.008583  0.052314      4.000000
  0.029734 -0.017167  0.052314      4.000000
  0.044601 -0.025750  0.052314      4.000000
  0.014867  0.008583  0.052314      4.000000
  0.029734  0.000000  0.052314      4.000000
  0.044601 -0.008583  0.052314      4.000000
  0.059468 -0.017167  0.052314      4.000000
 -0.029734  0.034334  0.052314      4.000000
 -0.014867  0.025750  0.052314      4.000000
  0.000000  0.017167  0.052314      4.000000
  0.029734  0.017167  0.052314      4.000000
  0.044601  0.008583  0.052314      4.000000
  0.059468  0.000000  0.052314      4.000000
  0.074334 -0.008583  0.052314      4.000000
 -0.014867  0.042917  0.052314      4.000000
  0.000000  0.034334  0.052314      4.000000
  0.014867  0.025750  0.052314      4.000000
  0.044601  0.025750  0.052314      4.000000
  0.059468  0.017167  0.052314      4.000000
  0.074334  0.008583  0.052314      4.000000
  0.089201  0.000000  0.052314      4.000000
  0.000000  0.051500  0.052314      4.000000
  0.014867  0.042917  0.052314      4.000000
  0.029734  0.034334  0.052314      4.000000
  0.000000  0.000000  0.069752      2.000000
  0.014867 -0.008583  0.069752      4.000000
  0.029734 -0.017167  0.069752      4.000000
  0.044601 -0.025750  0.069752      4.000000
  0.014867  0.008583  0.069752      4.000000
  0.029734  0.000000  0.069752      4.000000
  0.044601 -0.008583  0.069752      4.000000
  0.059468 -0.017167  0.069752      4.000000
 -0.029734  0.034334  0.069752      4.000000
 -0.014867  0.025750  0.069752      4.000000
  0.000000  0.017167  0.069752      4.000000
  0.029734  0.017167  0.069752      4.000000
  0.044601  0.008583  0.069752      4.000000
  0.059468  0.000000  0.069752      4.000000
  0.074334 -0.008583  0.069752      4.000000
 -0.014867  0.042917  0.069752      4.000000
  0.000000  0.034334  0.069752      4.000000
  0.014867  0.025750  0.069752      4.000000
  0.044601  0.025750  0.069752      4.000000
  0.059468  0.017167  0.069752      4.000000
  0.074334  0.008583  0.069752      4.000000
  0.089201  0.000000  0.069752      4.000000
  0.000000  0.051500  0.069752      4.000000
  0.014867  0.042917  0.069752      4.000000
  0.029734  0.034334  0.069752      4.000000
  0.000000  0.000000  0.087190      2.000000
  0.014867 -0.008583  0.087190      4.000000
  0.029734 -0.017167  0.087190      4.000000
  0.044601 -0.025750  0.087190      4.000000
  0.014867  0.008583  0.087190      4.000000
  0.029734  0.000000  0.087190      4.000000
  0.044601 -0.008583  0.087190      4.000000
  0.059468 -0.017167  0.087190      4.000000
 -0.029734  0.034334  0.087190      4.000000
 -0.014867  0.025750  0.087190      4.000000
  0.000000  0.017167  0.087190      4.000000
  0.029734  0.017167  0.087190      4.000000
  0.044601  0.008583  0.087190      4.000000
  0.059468  0.000000  0.087190      4.000000
  0.074334 -0.008583  0.087190      4.000000
 -0.014867  0.042917  0.087190      4.000000
  0.000000  0.034334  0.087190      4.000000
  0.014867  0.025750  0.087190      4.000000
  0.044601  0.025750  0.087190      4.000000
  0.059468  0.017167  0.087190      4.000000
  0.074334  0.008583  0.087190      4.000000
  0.089201  0.000000  0.087190      4.000000
  0.000000  0.051500  0.087190      4.000000
  0.014867  0.042917  0.087190      4.000000
  0.029734  0.034334  0.087190      4.000000
  0.000000  0.000000  0.104628      1.000000
  0.014867 -0.008583  0.104628      2.000000
  0.029734 -0.017167  0.104628      2.000000
  0.044601 -0.025750  0.104628      2.000000
  0.014867  0.008583  0.104628      2.000000
  0.029734  0.000000  0.104628      2.000000
  0.044601 -0.008583  0.104628      2.000000
  0.059468 -0.017167  0.104628      2.000000
 -0.029734  0.034334  0.104628      2.000000
 -0.014867  0.025750  0.104628      2.000000
  0.000000  0.017167  0.104628      2.000000
  0.029734  0.017167  0.104628      2.000000
  0.044601  0.008583  0.104628      2.000000
  0.059468  0.000000  0.104628      2.000000
  0.074334 -0.008583  0.104628      2.000000
 -0.014867  0.042917  0.104628      2.000000
  0.000000  0.034334  0.104628      2.000000
  0.014867  0.025750  0.104628      2.000000
  0.044601  0.025750  0.104628      2.000000
  0.059468  0.017167  0.104628      2.000000
  0.074334  0.008583  0.104628      2.000000
  0.089201  0.000000  0.104628      2.000000
  0.000000  0.051500  0.104628      2.000000
  0.014867  0.042917  0.104628      2.000000
  0.029734  0.034334  0.104628      2.000000
 
 TETIRR: Found   1746 inequivalent tetrahedra from     3528


--------------------------------------------------------------------------------------------------------




 Dimension of arrays:
   k-Points           NKPTS =    175   number of bands    NBANDS=    146
   number of dos      NEDOS =   5000   number of ions     NIONS =     22
   non local maximal  LDIM  =      8   non local SUM 2l+1 LMDIM =     32
   total plane-waves  NPLWV = 108000
   max r-space proj   IRMAX =      1   max aug-charges    IRDMAX=   8745
   dimension x,y,z NGX =    60 NGY =   60 NGZ =   30
   dimension x,y,z NGXF=   100 NGYF=  100 NGZF=   50
   support grid    NGXF=   100 NGYF=  100 NGZF=   50
   ions per type =               2  20
 NGX,Y,Z   is equivalent  to a cutoff of  10.38, 10.38, 10.44 a.u.
 NGXF,Y,Z  is equivalent  to a cutoff of  17.30, 17.30, 17.39 a.u.


 I would recommend the setting:
   dimension x,y,z NGX =    58 NGY =   58 NGZ =   29
 SYSTEM =  La1Si10_ICSD_246806                     
 POSCAR =  La1Si10 #194 - (La1Si10_ICSD_246806) - L

 Startparameter for this run:
   NWRITE =      2    write-flag & timer
   PREC   = high      medium, high low
   ISTART =      0    job   : 0-new  1-cont  2-samecut
   ICHARG =      2    charge: 1-file 2-atom 10-const
   ISPIN  =      1    spin polarized calculation?
   LNONCOLLINEAR =      F non collinear calculations
   LSORBIT =      F    spin-orbit coupling
   INIWAV =      1    electr: 0-lowe 1-rand  2-diag
   LASPH  =      F    aspherical Exc in radial PAW
   METAGGA=      F    non-selfconsistent MetaGGA calc.

 Electronic Relaxation 1
   ENCUT  =  343.5 eV  25.25 Ry    5.02 a.u.  14.52 14.52  7.22*2*pi/ulx,y,z
   ENINI  =  343.5     initial cutoff
   ENAUG  =  583.6 eV  augmentation charge cutoff
   NELM   =    120;   NELMIN=  2; NELMDL=  0     # of ELM steps 
   EDIFF  = 0.1E-03   stopping-criterion for ELM
   LREAL  =      F    real-space projection
   LCOMPAT=      F    compatible to vasp.4.4
   LREAL_COMPAT= F    compatible to vasp.4.5.1-3
   GGA_COMPAT  = T    GGA compatible to vasp.4.4-vasp.4.6
   LMAXPAW     = -100 max onsite density
   LMAXMIX     =    6 max onsite mixed and CHGCAR
   VOSKOWN=      0    Vosko Wilk Nusair interpolation
   ROPT   =    0.00000   0.00000
 Ionic relaxation
   EDIFFG = 0.1E-02   stopping-criterion for IOM
   NSW    =      0    number of steps for IOM
   NBLOCK =      1;   KBLOCK =      1    inner block; outer block 
   IBRION =     -1    ionic relax: 0-MD 1-quasi-New 2-CG
   NFREE  =      1    steps in history (QN), initial steepest desc. (CG)
   ISIF   =      2    stress and relaxation
   IWAVPR =     10    prediction:  0-non 1-charg 2-wave 3-comb
   ISYM   =      2    0-nonsym 1-usesym 2-fastsym
   LCORR  =      T    Harris-Foulkes like correction to forces

   POTIM  =   0.50    time-step for ionic-motion
   TEIN   =    0.0    initial temperature
   TEBEG  =    0.0;   TEEND  =   0.0 temperature during run
   SMASS  =  -3.00    Nose mass-parameter (am)
   estimated Nose-frequenzy (Omega)   =  0.10E-29 period in steps =****** mass=  -0.211E-26a.u.
   NPACO  =    256;   APACO  = 16.0  distance and # of slots for P.C.
   PSTRESS=    0.0 pullay stress

  Mass of Ions in am
   POMASS = 138.90 28.09
  Ionic Valenz
   ZVAL   =  11.00  4.00
  Atomic Wigner-Seitz radii
   RWIGS  =  -1.00 -1.00
   NELECT =     102.0000    total number of electrons
   NUPDOWN=      -1.0000    fix difference up-down

 DOS related values:
   EMIN   = -30.00;   EMAX   = 45.00  energy-range for DOS
   ISMEAR =    -5;   SIGMA  =   0.05  broadening in eV -4-tet -1-fermi 0-gaus

 Electronic relaxation 2 (details)
   IALGO  =     38    algorithm
   LDIAG  =      T    sub-space diagonalisation
   IMIX   =      4    mixing-type and parameters
     AMIX     =   0.40;   BMIX     =  1.00
     AMIX_MAG =   1.60;   BMIX_MAG =  1.00
     AMIN     =   0.10
     WC   =   100.;   INIMIX=   1;  MIXPRE=   1

 Intra band minimization:
   WEIMIN = 0.0000     energy-eigenvalue tresh-hold
   EBREAK =  0.17E-06  absolut break condition
   DEPER  =   0.30     relativ break condition  

   TIME   =   0.10     timestep for ELM

  volume/ion in A,a.u.               =      17.37       117.22
  Fermi-wavevector in a.u.,eV,Ry     =   1.054069 15.116914  1.111062

 Second variation
   LSECVAR=     F    do a second variation
 
 Write flags
   LWAVE  =      F    write WAVECAR
   LCHARG =      T    write CHGCAR
   LVTOT  =      F    write LOCPOT, local potential
   LELF   =      F    write electronic localiz. function (ELF)
   LORBIT =     10    0 simple, 1 ext, 2 COOP (PROOUT)


 Dipole corrections
   IDIPOL =      0    1-x, 2-y, 3-z
   LDIPOL =      F    correct potential

 LDA+U is selected, type is set to LDAUTYPE =  2
   angular momentum for each species LDAUL =     3    0
   U (eV)           for each species LDAUU =   8.1  0.0
   J (eV)           for each species LDAUJ =   0.6  0.0


--------------------------------------------------------------------------------------------------------


 Static calculation
 charge density will be updated during run
 non-spin polarized calculation
 Variant of blocked Davidson
 Davidson routine will perform the subspace rotation
 performe sub-space diagonalisation
    after iterative eigenvector-optimisation
 modified Broyden-mixing scheme, WC =      100.0
 initial mixing is a Kerker type mixing with AMIX =  0.4000 and BMIX =      1.0000
 Hartree-type preconditioning will be used
 using additional bands           95
 reciprocal scheme for non local part
 use partial core corrections
 calculate Harris-corrections to forces 
   (improved forces if not selfconsistent)
 use gradient corrections 
 use of overlap-Matrix (Vanderbilt PP)
 Fermi weights with tetrahedron method with Bloechl corrections


--------------------------------------------------------------------------------------------------------


  energy-cutoff  :      343.48
  volume of cell :      382.14
      direct lattice vectors                 reciprocal lattice vectors
     4.804537155 -8.321702458  0.000000000     0.104068297 -0.060083859  0.000000000
     4.804537155  8.321702458  0.000000000     0.104068297  0.060083859  0.000000000
     0.000000000  0.000000000  4.778851886     0.000000000  0.000000000  0.209255282

  length of vectors
     9.609074309  9.609074309  4.778851886     0.120167719  0.120167719  0.209255282


 
 k-points in units of 2pi/SCALE and weight: KPOINTS File, automatically generated by
   0.00000000  0.00000000  0.00000000       0.002
   0.01486690 -0.00858341  0.00000000       0.003
   0.02973380 -0.01716682  0.00000000       0.003
   0.04460070 -0.02575023  0.00000000       0.003
   0.01486690  0.00858341  0.00000000       0.003
   0.02973380  0.00000000  0.00000000       0.003
   0.04460070 -0.00858341  0.00000000       0.003
   0.05946760 -0.01716682  0.00000000       0.003
  -0.02973380  0.03433363  0.00000000       0.003
  -0.01486690  0.02575023  0.00000000       0.003
   0.00000000  0.01716682  0.00000000       0.003
   0.02973380  0.01716682  0.00000000       0.003
   0.04460070  0.00858341  0.00000000       0.003
   0.05946760  0.00000000  0.00000000       0.003
   0.07433450 -0.00858341  0.00000000       0.003
  -0.01486690  0.04291704  0.00000000       0.003
   0.00000000  0.03433363  0.00000000       0.003
   0.01486690  0.02575023  0.00000000       0.003
   0.04460070  0.02575023  0.00000000       0.003
   0.05946760  0.01716682  0.00000000       0.003
   0.07433450  0.00858341  0.00000000       0.003
   0.08920140  0.00000000  0.00000000       0.003
   0.00000000  0.05150045  0.00000000       0.003
   0.01486690  0.04291704  0.00000000       0.003
   0.02973380  0.03433363  0.00000000       0.003
   0.00000000  0.00000000  0.01743794       0.003
   0.01486690 -0.00858341  0.01743794       0.007
   0.02973380 -0.01716682  0.01743794       0.007
   0.04460070 -0.02575023  0.01743794       0.007
   0.01486690  0.00858341  0.01743794       0.007
   0.02973380  0.00000000  0.01743794       0.007
   0.04460070 -0.00858341  0.01743794       0.007
   0.05946760 -0.01716682  0.01743794       0.007
  -0.02973380  0.03433363  0.01743794       0.007
  -0.01486690  0.02575023  0.01743794       0.007
   0.00000000  0.01716682  0.01743794       0.007
   0.02973380  0.01716682  0.01743794       0.007
   0.04460070  0.00858341  0.01743794       0.007
   0.05946760  0.00000000  0.01743794       0.007
   0.07433450 -0.00858341  0.01743794       0.007
  -0.01486690  0.04291704  0.01743794       0.007
   0.00000000  0.03433363  0.01743794       0.007
   0.01486690  0.02575023  0.01743794       0.007
   0.04460070  0.02575023  0.01743794       0.007
   0.05946760  0.01716682  0.01743794       0.007
   0.07433450  0.00858341  0.01743794       0.007
   0.08920140  0.00000000  0.01743794       0.007
   0.00000000  0.05150045  0.01743794       0.007
   0.01486690  0.04291704  0.01743794       0.007
   0.02973380  0.03433363  0.01743794       0.007
   0.00000000  0.00000000  0.03487588       0.003
   0.01486690 -0.00858341  0.03487588       0.007
   0.02973380 -0.01716682  0.03487588       0.007
   0.04460070 -0.02575023  0.03487588       0.007
   0.01486690  0.00858341  0.03487588       0.007
   0.02973380  0.00000000  0.03487588       0.007
   0.04460070 -0.00858341  0.03487588       0.007
   0.05946760 -0.01716682  0.03487588       0.007
  -0.02973380  0.03433363  0.03487588       0.007
  -0.01486690  0.02575023  0.03487588       0.007
   0.00000000  0.01716682  0.03487588       0.007
   0.02973380  0.01716682  0.03487588       0.007
   0.04460070  0.00858341  0.03487588       0.007
   0.05946760  0.00000000  0.03487588       0.007
   0.07433450 -0.00858341  0.03487588       0.007
  -0.01486690  0.04291704  0.03487588       0.007
   0.00000000  0.03433363  0.03487588       0.007
   0.01486690  0.02575023  0.03487588       0.007
   0.04460070  0.02575023  0.03487588       0.007
   0.05946760  0.01716682  0.03487588       0.007
   0.07433450  0.00858341  0.03487588       0.007
   0.08920140  0.00000000  0.03487588       0.007
   0.00000000  0.05150045  0.03487588       0.007
   0.01486690  0.04291704  0.03487588       0.007
   0.02973380  0.03433363  0.03487588       0.007
   0.00000000  0.00000000  0.05231382       0.003
   0.01486690 -0.00858341  0.05231382       0.007
   0.02973380 -0.01716682  0.05231382       0.007
   0.04460070 -0.02575023  0.05231382       0.007
   0.01486690  0.00858341  0.05231382       0.007
   0.02973380  0.00000000  0.05231382       0.007
   0.04460070 -0.00858341  0.05231382       0.007
   0.05946760 -0.01716682  0.05231382       0.007
  -0.02973380  0.03433363  0.05231382       0.007
  -0.01486690  0.02575023  0.05231382       0.007
   0.00000000  0.01716682  0.05231382       0.007
   0.02973380  0.01716682  0.05231382       0.007
   0.04460070  0.00858341  0.05231382       0.007
   0.05946760  0.00000000  0.05231382       0.007
   0.07433450 -0.00858341  0.05231382       0.007
  -0.01486690  0.04291704  0.05231382       0.007
   0.00000000  0.03433363  0.05231382       0.007
   0.01486690  0.02575023  0.05231382       0.007
   0.04460070  0.02575023  0.05231382       0.007
   0.05946760  0.01716682  0.05231382       0.007
   0.07433450  0.00858341  0.05231382       0.007
   0.08920140  0.00000000  0.05231382       0.007
   0.00000000  0.05150045  0.05231382       0.007
   0.01486690  0.04291704  0.05231382       0.007
   0.02973380  0.03433363  0.05231382       0.007
   0.00000000  0.00000000  0.06975176       0.003
   0.01486690 -0.00858341  0.06975176       0.007
   0.02973380 -0.01716682  0.06975176       0.007
   0.04460070 -0.02575023  0.06975176       0.007
   0.01486690  0.00858341  0.06975176       0.007
   0.02973380  0.00000000  0.06975176       0.007
   0.04460070 -0.00858341  0.06975176       0.007
   0.05946760 -0.01716682  0.06975176       0.007
  -0.02973380  0.03433363  0.06975176       0.007
  -0.01486690  0.02575023  0.06975176       0.007
   0.00000000  0.01716682  0.06975176       0.007
   0.02973380  0.01716682  0.06975176       0.007
   0.04460070  0.00858341  0.06975176       0.007
   0.05946760  0.00000000  0.06975176       0.007
   0.07433450 -0.00858341  0.06975176       0.007
  -0.01486690  0.04291704  0.06975176       0.007
   0.00000000  0.03433363  0.06975176       0.007
   0.01486690  0.02575023  0.06975176       0.007
   0.04460070  0.02575023  0.06975176       0.007
   0.05946760  0.01716682  0.06975176       0.007
   0.07433450  0.00858341  0.06975176       0.007
   0.08920140  0.00000000  0.06975176       0.007
   0.00000000  0.05150045  0.06975176       0.007
   0.01486690  0.04291704  0.06975176       0.007
   0.02973380  0.03433363  0.06975176       0.007
   0.00000000  0.00000000  0.08718970       0.003
   0.01486690 -0.00858341  0.08718970       0.007
   0.02973380 -0.01716682  0.08718970       0.007
   0.04460070 -0.02575023  0.08718970       0.007
   0.01486690  0.00858341  0.08718970       0.007
   0.02973380  0.00000000  0.08718970       0.007
   0.04460070 -0.00858341  0.08718970       0.007
   0.05946760 -0.01716682  0.08718970       0.007
  -0.02973380  0.03433363  0.08718970       0.007
  -0.01486690  0.02575023  0.08718970       0.007
   0.00000000  0.01716682  0.08718970       0.007
   0.02973380  0.01716682  0.08718970       0.007
   0.04460070  0.00858341  0.08718970       0.007
   0.05946760  0.00000000  0.08718970       0.007
   0.07433450 -0.00858341  0.08718970       0.007
  -0.01486690  0.04291704  0.08718970       0.007
   0.00000000  0.03433363  0.08718970       0.007
   0.01486690  0.02575023  0.08718970       0.007
   0.04460070  0.02575023  0.08718970       0.007
   0.05946760  0.01716682  0.08718970       0.007
   0.07433450  0.00858341  0.08718970       0.007
   0.08920140  0.00000000  0.08718970       0.007
   0.00000000  0.05150045  0.08718970       0.007
   0.01486690  0.04291704  0.08718970       0.007
   0.02973380  0.03433363  0.08718970       0.007
   0.00000000  0.00000000  0.10462764       0.002
   0.01486690 -0.00858341  0.10462764       0.003
   0.02973380 -0.01716682  0.10462764       0.003
   0.04460070 -0.02575023  0.10462764       0.003
   0.01486690  0.00858341  0.10462764       0.003
   0.02973380  0.00000000  0.10462764       0.003
   0.04460070 -0.00858341  0.10462764       0.003
   0.05946760 -0.01716682  0.10462764       0.003
  -0.02973380  0.03433363  0.10462764       0.003
  -0.01486690  0.02575023  0.10462764       0.003
   0.00000000  0.01716682  0.10462764       0.003
   0.02973380  0.01716682  0.10462764       0.003
   0.04460070  0.00858341  0.10462764       0.003
   0.05946760  0.00000000  0.10462764       0.003
   0.07433450 -0.00858341  0.10462764       0.003
  -0.01486690  0.04291704  0.10462764       0.003
   0.00000000  0.03433363  0.10462764       0.003
   0.01486690  0.02575023  0.10462764       0.003
   0.04460070  0.02575023  0.10462764       0.003
   0.05946760  0.01716682  0.10462764       0.003
   0.07433450  0.00858341  0.10462764       0.003
   0.08920140  0.00000000  0.10462764       0.003
   0.00000000  0.05150045  0.10462764       0.003
   0.01486690  0.04291704  0.10462764       0.003
   0.02973380  0.03433363  0.10462764       0.003
 
 k-points in reciprocal lattice and weights: KPOINTS File, automatically generated by
   0.00000000  0.00000000  0.00000000       0.002
   0.14285714  0.00000000  0.00000000       0.003
   0.28571429  0.00000000  0.00000000       0.003
   0.42857143  0.00000000  0.00000000       0.003
   0.00000000  0.14285714  0.00000000       0.003
   0.14285714  0.14285714  0.00000000       0.003
   0.28571429  0.14285714  0.00000000       0.003
   0.42857143  0.14285714  0.00000000       0.003
  -0.42857143  0.14285714  0.00000000       0.003
  -0.28571429  0.14285714  0.00000000       0.003
  -0.14285714  0.14285714  0.00000000       0.003
   0.00000000  0.28571429  0.00000000       0.003
   0.14285714  0.28571429  0.00000000       0.003
   0.28571429  0.28571429  0.00000000       0.003
   0.42857143  0.28571429  0.00000000       0.003
  -0.42857143  0.28571429  0.00000000       0.003
  -0.28571429  0.28571429  0.00000000       0.003
  -0.14285714  0.28571429  0.00000000       0.003
   0.00000000  0.42857143  0.00000000       0.003
   0.14285714  0.42857143  0.00000000       0.003
   0.28571429  0.42857143  0.00000000       0.003
   0.42857143  0.42857143  0.00000000       0.003
  -0.42857143  0.42857143  0.00000000       0.003
  -0.28571429  0.42857143  0.00000000       0.003
  -0.14285714  0.42857143  0.00000000       0.003
   0.00000000  0.00000000  0.08333333       0.003
   0.14285714  0.00000000  0.08333333       0.007
   0.28571429  0.00000000  0.08333333       0.007
   0.42857143  0.00000000  0.08333333       0.007
   0.00000000  0.14285714  0.08333333       0.007
   0.14285714  0.14285714  0.08333333       0.007
   0.28571429  0.14285714  0.08333333       0.007
   0.42857143  0.14285714  0.08333333       0.007
  -0.42857143  0.14285714  0.08333333       0.007
  -0.28571429  0.14285714  0.08333333       0.007
  -0.14285714  0.14285714  0.08333333       0.007
   0.00000000  0.28571429  0.08333333       0.007
   0.14285714  0.28571429  0.08333333       0.007
   0.28571429  0.28571429  0.08333333       0.007
   0.42857143  0.28571429  0.08333333       0.007
  -0.42857143  0.28571429  0.08333333       0.007
  -0.28571429  0.28571429  0.08333333       0.007
  -0.14285714  0.28571429  0.08333333       0.007
   0.00000000  0.42857143  0.08333333       0.007
   0.14285714  0.42857143  0.08333333       0.007
   0.28571429  0.42857143  0.08333333       0.007
   0.42857143  0.42857143  0.08333333       0.007
  -0.42857143  0.42857143  0.08333333       0.007
  -0.28571429  0.42857143  0.08333333       0.007
  -0.14285714  0.42857143  0.08333333       0.007
   0.00000000  0.00000000  0.16666667       0.003
   0.14285714  0.00000000  0.16666667       0.007
   0.28571429  0.00000000  0.16666667       0.007
   0.42857143  0.00000000  0.16666667       0.007
   0.00000000  0.14285714  0.16666667       0.007
   0.14285714  0.14285714  0.16666667       0.007
   0.28571429  0.14285714  0.16666667       0.007
   0.42857143  0.14285714  0.16666667       0.007
  -0.42857143  0.14285714  0.16666667       0.007
  -0.28571429  0.14285714  0.16666667       0.007
  -0.14285714  0.14285714  0.16666667       0.007
   0.00000000  0.28571429  0.16666667       0.007
   0.14285714  0.28571429  0.16666667       0.007
   0.28571429  0.28571429  0.16666667       0.007
   0.42857143  0.28571429  0.16666667       0.007
  -0.42857143  0.28571429  0.16666667       0.007
  -0.28571429  0.28571429  0.16666667       0.007
  -0.14285714  0.28571429  0.16666667       0.007
   0.00000000  0.42857143  0.16666667       0.007
   0.14285714  0.42857143  0.16666667       0.007
   0.28571429  0.42857143  0.16666667       0.007
   0.42857143  0.42857143  0.16666667       0.007
  -0.42857143  0.42857143  0.16666667       0.007
  -0.28571429  0.42857143  0.16666667       0.007
  -0.14285714  0.42857143  0.16666667       0.007
   0.00000000  0.00000000  0.25000000       0.003
   0.14285714  0.00000000  0.25000000       0.007
   0.28571429  0.00000000  0.25000000       0.007
   0.42857143  0.00000000  0.25000000       0.007
   0.00000000  0.14285714  0.25000000       0.007
   0.14285714  0.14285714  0.25000000       0.007
   0.28571429  0.14285714  0.25000000       0.007
   0.42857143  0.14285714  0.25000000       0.007
  -0.42857143  0.14285714  0.25000000       0.007
  -0.28571429  0.14285714  0.25000000       0.007
  -0.14285714  0.14285714  0.25000000       0.007
   0.00000000  0.28571429  0.25000000       0.007
   0.14285714  0.28571429  0.25000000       0.007
   0.28571429  0.28571429  0.25000000       0.007
   0.42857143  0.28571429  0.25000000       0.007
  -0.42857143  0.28571429  0.25000000       0.007
  -0.28571429  0.28571429  0.25000000       0.007
  -0.14285714  0.28571429  0.25000000       0.007
   0.00000000  0.42857143  0.25000000       0.007
   0.14285714  0.42857143  0.25000000       0.007
   0.28571429  0.42857143  0.25000000       0.007
   0.42857143  0.42857143  0.25000000       0.007
  -0.42857143  0.42857143  0.25000000       0.007
  -0.28571429  0.42857143  0.25000000       0.007
  -0.14285714  0.42857143  0.25000000       0.007
   0.00000000  0.00000000  0.33333333       0.003
   0.14285714  0.00000000  0.33333333       0.007
   0.28571429  0.00000000  0.33333333       0.007
   0.42857143  0.00000000  0.33333333       0.007
   0.00000000  0.14285714  0.33333333       0.007
   0.14285714  0.14285714  0.33333333       0.007
   0.28571429  0.14285714  0.33333333       0.007
   0.42857143  0.14285714  0.33333333       0.007
  -0.42857143  0.14285714  0.33333333       0.007
  -0.28571429  0.14285714  0.33333333       0.007
  -0.14285714  0.14285714  0.33333333       0.007
   0.00000000  0.28571429  0.33333333       0.007
   0.14285714  0.28571429  0.33333333       0.007
   0.28571429  0.28571429  0.33333333       0.007
   0.42857143  0.28571429  0.33333333       0.007
  -0.42857143  0.28571429  0.33333333       0.007
  -0.28571429  0.28571429  0.33333333       0.007
  -0.14285714  0.28571429  0.33333333       0.007
   0.00000000  0.42857143  0.33333333       0.007
   0.14285714  0.42857143  0.33333333       0.007
   0.28571429  0.42857143  0.33333333       0.007
   0.42857143  0.42857143  0.33333333       0.007
  -0.42857143  0.42857143  0.33333333       0.007
  -0.28571429  0.42857143  0.33333333       0.007
  -0.14285714  0.42857143  0.33333333       0.007
   0.00000000  0.00000000  0.41666667       0.003
   0.14285714  0.00000000  0.41666667       0.007
   0.28571429  0.00000000  0.41666667       0.007
   0.42857143  0.00000000  0.41666667       0.007
   0.00000000  0.14285714  0.41666667       0.007
   0.14285714  0.14285714  0.41666667       0.007
   0.28571429  0.14285714  0.41666667       0.007
   0.42857143  0.14285714  0.41666667       0.007
  -0.42857143  0.14285714  0.41666667       0.007
  -0.28571429  0.14285714  0.41666667       0.007
  -0.14285714  0.14285714  0.41666667       0.007
   0.00000000  0.28571429  0.41666667       0.007
   0.14285714  0.28571429  0.41666667       0.007
   0.28571429  0.28571429  0.41666667       0.007
   0.42857143  0.28571429  0.41666667       0.007
  -0.42857143  0.28571429  0.41666667       0.007
  -0.28571429  0.28571429  0.41666667       0.007
  -0.14285714  0.28571429  0.41666667       0.007
   0.00000000  0.42857143  0.41666667       0.007
   0.14285714  0.42857143  0.41666667       0.007
   0.28571429  0.42857143  0.41666667       0.007
   0.42857143  0.42857143  0.41666667       0.007
  -0.42857143  0.42857143  0.41666667       0.007
  -0.28571429  0.42857143  0.41666667       0.007
  -0.14285714  0.42857143  0.41666667       0.007
   0.00000000  0.00000000  0.50000000       0.002
   0.14285714  0.00000000  0.50000000       0.003
   0.28571429  0.00000000  0.50000000       0.003
   0.42857143  0.00000000  0.50000000       0.003
   0.00000000  0.14285714  0.50000000       0.003
   0.14285714  0.14285714  0.50000000       0.003
   0.28571429  0.14285714  0.50000000       0.003
   0.42857143  0.14285714  0.50000000       0.003
  -0.42857143  0.14285714  0.50000000       0.003
  -0.28571429  0.14285714  0.50000000       0.003
  -0.14285714  0.14285714  0.50000000       0.003
   0.00000000  0.28571429  0.50000000       0.003
   0.14285714  0.28571429  0.50000000       0.003
   0.28571429  0.28571429  0.50000000       0.003
   0.42857143  0.28571429  0.50000000       0.003
  -0.42857143  0.28571429  0.50000000       0.003
  -0.28571429  0.28571429  0.50000000       0.003
  -0.14285714  0.28571429  0.50000000       0.003
   0.00000000  0.42857143  0.50000000       0.003
   0.14285714  0.42857143  0.50000000       0.003
   0.28571429  0.42857143  0.50000000       0.003
   0.42857143  0.42857143  0.50000000       0.003
  -0.42857143  0.42857143  0.50000000       0.003
  -0.28571429  0.42857143  0.50000000       0.003
  -0.14285714  0.42857143  0.50000000       0.003
 
 position of ions in fractional coordinates (direct lattice) 
   0.33332705  0.66667147  0.25000000
   0.66667295  0.33332853  0.75000000
   0.00000000  0.00000000  0.25000000
   0.00000000  0.00000000  0.75000000
   0.04610921  0.52306447  0.75000000
   0.47693723  0.52304336  0.75000000
   0.47695504  0.95389081  0.75000000
   0.95389079  0.47693553  0.25000000
   0.52306277  0.47695664  0.25000000
   0.52304496  0.04610919  0.25000000
   0.18318444  0.36635930  0.75000000
   0.63364084  0.81682172  0.75000000
   0.18317339  0.81682056  0.75000000
   0.81681556  0.63364070  0.25000000
   0.36635916  0.18317828  0.25000000
   0.81682661  0.18317944  0.25000000
   0.14276332  0.28567860  0.25000000
   0.71432139  0.85709231  0.25000000
   0.14290822  0.85723606  0.25000000
   0.85723668  0.71432140  0.75000000
   0.28567861  0.14290769  0.75000000
   0.85709178  0.14276394  0.75000000
 
 position of ions in cartesian coordinates  (Angst):
   4.80453008  2.77399309  1.19471297
   4.80454423 -2.77399309  3.58413891
   0.00000000  0.00000000  1.19471297
   0.00000000  0.00000000  3.58413891
   2.73461607  3.96907976  3.58413891
   4.80444388  0.38368147  3.58413891
   6.87455206  3.96891762  3.58413891
   6.87445824 -3.96907976  1.19471297
   4.80463043 -0.38368147  1.19471297
   2.73452225 -3.96891762  1.19471297
   2.64030332  1.52432673  3.58413891
   6.96880123  1.52437676  3.58413891
   4.80450808  5.27302315  3.58413891
   6.96877099 -1.52432673  1.19471297
   2.64027308 -1.52437676  1.19471297
   4.80456623 -5.27302315  1.19471297
   2.05846512  1.18929842  1.19471297
   7.54991554  1.18809711  1.19471297
   4.80523034  5.94442373  1.19471297
   7.55060919 -1.18929842  3.58413891
   2.05915877 -1.18809711  3.58413891
   4.80384397 -5.94442373  3.58413891
 


--------------------------------------------------------------------------------------------------------


 k-point  1 :  0.00000.00000.0000  plane waves:   5493
 k-point  2 :  0.14290.00000.0000  plane waves:   5543
 k-point  3 :  0.28570.00000.0000  plane waves:   5541
 k-point  4 :  0.42860.00000.0000  plane waves:   5526
 k-point  5 :  0.00000.14290.0000  plane waves:   5543
 k-point  6 :  0.14290.14290.0000  plane waves:   5537
 k-point  7 :  0.28570.14290.0000  plane waves:   5509
 k-point  8 :  0.42860.14290.0000  plane waves:   5524
 k-point  9 :  -.42860.14290.0000  plane waves:   5509
 k-point 10 :  -.28570.14290.0000  plane waves:   5537
 k-point 11 :  -.14290.14290.0000  plane waves:   5543
 k-point 12 :  0.00000.28570.0000  plane waves:   5541
 k-point 13 :  0.14290.28570.0000  plane waves:   5509
 k-point 14 :  0.28570.28570.0000  plane waves:   5514
 k-point 15 :  0.42860.28570.0000  plane waves:   5514
 k-point 16 :  -.42860.28570.0000  plane waves:   5509
 k-point 17 :  -.28570.28570.0000  plane waves:   5541
 k-point 18 :  -.14290.28570.0000  plane waves:   5537
 k-point 19 :  0.00000.42860.0000  plane waves:   5526
 k-point 20 :  0.14290.42860.0000  plane waves:   5524
 k-point 21 :  0.28570.42860.0000  plane waves:   5514
 k-point 22 :  0.42860.42860.0000  plane waves:   5524
 k-point 23 :  -.42860.42860.0000  plane waves:   5526
 k-point 24 :  -.28570.42860.0000  plane waves:   5509
 k-point 25 :  -.14290.42860.0000  plane waves:   5509
 k-point 26 :  0.00000.00000.0833  plane waves:   5523
 k-point 27 :  0.14290.00000.0833  plane waves:   5528
 k-point 28 :  0.28570.00000.0833  plane waves:   5527
 k-point 29 :  0.42860.00000.0833  plane waves:   5517
 k-point 30 :  0.00000.14290.0833  plane waves:   5528
 k-point 31 :  0.14290.14290.0833  plane waves:   5533
 k-point 32 :  0.28570.14290.0833  plane waves:   5520
 k-point 33 :  0.42860.14290.0833  plane waves:   5515
 k-point 34 :  -.42860.14290.0833  plane waves:   5520
 k-point 35 :  -.28570.14290.0833  plane waves:   5533
 k-point 36 :  -.14290.14290.0833  plane waves:   5528
 k-point 37 :  0.00000.28570.0833  plane waves:   5527
 k-point 38 :  0.14290.28570.0833  plane waves:   5520
 k-point 39 :  0.28570.28570.0833  plane waves:   5520
 k-point 40 :  0.42860.28570.0833  plane waves:   5520
 k-point 41 :  -.42860.28570.0833  plane waves:   5520
 k-point 42 :  -.28570.28570.0833  plane waves:   5527
 k-point 43 :  -.14290.28570.0833  plane waves:   5533
 k-point 44 :  0.00000.42860.0833  plane waves:   5517
 k-point 45 :  0.14290.42860.0833  plane waves:   5515
 k-point 46 :  0.28570.42860.0833  plane waves:   5520
 k-point 47 :  0.42860.42860.0833  plane waves:   5515
 k-point 48 :  -.42860.42860.0833  plane waves:   5517
 k-point 49 :  -.28570.42860.0833  plane waves:   5520
 k-point 50 :  -.14290.42860.0833  plane waves:   5520
 k-point 51 :  0.00000.00000.1667  plane waves:   5535
 k-point 52 :  0.14290.00000.1667  plane waves:   5523
 k-point 53 :  0.28570.00000.1667  plane waves:   5526
 k-point 54 :  0.42860.00000.1667  plane waves:   5522
 k-point 55 :  0.00000.14290.1667  plane waves:   5523
 k-point 56 :  0.14290.14290.1667  plane waves:   5520
 k-point 57 :  0.28570.14290.1667  plane waves:   5516
 k-point 58 :  0.42860.14290.1667  plane waves:   5507
 k-point 59 :  -.42860.14290.1667  plane waves:   5516
 k-point 60 :  -.28570.14290.1667  plane waves:   5520
 k-point 61 :  -.14290.14290.1667  plane waves:   5523
 k-point 62 :  0.00000.28570.1667  plane waves:   5526
 k-point 63 :  0.14290.28570.1667  plane waves:   5516
 k-point 64 :  0.28570.28570.1667  plane waves:   5518
 k-point 65 :  0.42860.28570.1667  plane waves:   5518
 k-point 66 :  -.42860.28570.1667  plane waves:   5516
 k-point 67 :  -.28570.28570.1667  plane waves:   5526
 k-point 68 :  -.14290.28570.1667  plane waves:   5520
 k-point 69 :  0.00000.42860.1667  plane waves:   5522
 k-point 70 :  0.14290.42860.1667  plane waves:   5507
 k-point 71 :  0.28570.42860.1667  plane waves:   5518
 k-point 72 :  0.42860.42860.1667  plane waves:   5507
 k-point 73 :  -.42860.42860.1667  plane waves:   5522
 k-point 74 :  -.28570.42860.1667  plane waves:   5516
 k-point 75 :  -.14290.42860.1667  plane waves:   5516
 k-point 76 :  0.00000.00000.2500  plane waves:   5534
 k-point 77 :  0.14290.00000.2500  plane waves:   5517
 k-point 78 :  0.28570.00000.2500  plane waves:   5517
 k-point 79 :  0.42860.00000.2500  plane waves:   5506
 k-point 80 :  0.00000.14290.2500  plane waves:   5517
 k-point 81 :  0.14290.14290.2500  plane waves:   5522
 k-point 82 :  0.28570.14290.2500  plane waves:   5524
 k-point 83 :  0.42860.14290.2500  plane waves:   5514
 k-point 84 :  -.42860.14290.2500  plane waves:   5524
 k-point 85 :  -.28570.14290.2500  plane waves:   5522
 k-point 86 :  -.14290.14290.2500  plane waves:   5517
 k-point 87 :  0.00000.28570.2500  plane waves:   5517
 k-point 88 :  0.14290.28570.2500  plane waves:   5524
 k-point 89 :  0.28570.28570.2500  plane waves:   5522
 k-point 90 :  0.42860.28570.2500  plane waves:   5522
 k-point 91 :  -.42860.28570.2500  plane waves:   5524
 k-point 92 :  -.28570.28570.2500  plane waves:   5517
 k-point 93 :  -.14290.28570.2500  plane waves:   5522
 k-point 94 :  0.00000.42860.2500  plane waves:   5506
 k-point 95 :  0.14290.42860.2500  plane waves:   5514
 k-point 96 :  0.28570.42860.2500  plane waves:   5522
 k-point 97 :  0.42860.42860.2500  plane waves:   5514
 k-point 98 :  -.42860.42860.2500  plane waves:   5506
 k-point 99 :  -.28570.42860.2500  plane waves:   5524
 k-point ** :  -.14290.42860.2500  plane waves:   5524
 k-point ** :  0.00000.00000.3333  plane waves:   5534
 k-point ** :  0.14290.00000.3333  plane waves:   5515
 k-point ** :  0.28570.00000.3333  plane waves:   5524
 k-point ** :  0.42860.00000.3333  plane waves:   5533
 k-point ** :  0.00000.14290.3333  plane waves:   5515
 k-point ** :  0.14290.14290.3333  plane waves:   5532
 k-point ** :  0.28570.14290.3333  plane waves:   5526
 k-point ** :  0.42860.14290.3333  plane waves:   5526
 k-point ** :  -.42860.14290.3333  plane waves:   5526
 k-point ** :  -.28570.14290.3333  plane waves:   5532
 k-point ** :  -.14290.14290.3333  plane waves:   5515
 k-point ** :  0.00000.28570.3333  plane waves:   5524
 k-point ** :  0.14290.28570.3333  plane waves:   5526
 k-point ** :  0.28570.28570.3333  plane waves:   5524
 k-point ** :  0.42860.28570.3333  plane waves:   5524
 k-point ** :  -.42860.28570.3333  plane waves:   5526
 k-point ** :  -.28570.28570.3333  plane waves:   5524
 k-point ** :  -.14290.28570.3333  plane waves:   5532
 k-point ** :  0.00000.42860.3333  plane waves:   5533
 k-point ** :  0.14290.42860.3333  plane waves:   5526
 k-point ** :  0.28570.42860.3333  plane waves:   5524
 k-point ** :  0.42860.42860.3333  plane waves:   5526
 k-point ** :  -.42860.42860.3333  plane waves:   5533
 k-point ** :  -.28570.42860.3333  plane waves:   5526
 k-point ** :  -.14290.42860.3333  plane waves:   5526
 k-point ** :  0.00000.00000.4167  plane waves:   5564
 k-point ** :  0.14290.00000.4167  plane waves:   5542
 k-point ** :  0.28570.00000.4167  plane waves:   5528
 k-point ** :  0.42860.00000.4167  plane waves:   5514
 k-point ** :  0.00000.14290.4167  plane waves:   5542
 k-point ** :  0.14290.14290.4167  plane waves:   5531
 k-point ** :  0.28570.14290.4167  plane waves:   5537
 k-point ** :  0.42860.14290.4167  plane waves:   5530
 k-point ** :  -.42860.14290.4167  plane waves:   5537
 k-point ** :  -.28570.14290.4167  plane waves:   5531
 k-point ** :  -.14290.14290.4167  plane waves:   5542
 k-point ** :  0.00000.28570.4167  plane waves:   5528
 k-point ** :  0.14290.28570.4167  plane waves:   5537
 k-point ** :  0.28570.28570.4167  plane waves:   5517
 k-point ** :  0.42860.28570.4167  plane waves:   5517
 k-point ** :  -.42860.28570.4167  plane waves:   5537
 k-point ** :  -.28570.28570.4167  plane waves:   5528
 k-point ** :  -.14290.28570.4167  plane waves:   5531
 k-point ** :  0.00000.42860.4167  plane waves:   5514
 k-point ** :  0.14290.42860.4167  plane waves:   5530
 k-point ** :  0.28570.42860.4167  plane waves:   5517
 k-point ** :  0.42860.42860.4167  plane waves:   5530
 k-point ** :  -.42860.42860.4167  plane waves:   5514
 k-point ** :  -.28570.42860.4167  plane waves:   5537
 k-point ** :  -.14290.42860.4167  plane waves:   5537
 k-point ** :  0.00000.00000.5000  plane waves:   5570
 k-point ** :  0.14290.00000.5000  plane waves:   5568
 k-point ** :  0.28570.00000.5000  plane waves:   5526
 k-point ** :  0.42860.00000.5000  plane waves:   5532
 k-point ** :  0.00000.14290.5000  plane waves:   5568
 k-point ** :  0.14290.14290.5000  plane waves:   5544
 k-point ** :  0.28570.14290.5000  plane waves:   5526
 k-point ** :  0.42860.14290.5000  plane waves:   5500
 k-point ** :  -.42860.14290.5000  plane waves:   5526
 k-point ** :  -.28570.14290.5000  plane waves:   5544
 k-point ** :  -.14290.14290.5000  plane waves:   5568
 k-point ** :  0.00000.28570.5000  plane waves:   5526
 k-point ** :  0.14290.28570.5000  plane waves:   5526
 k-point ** :  0.28570.28570.5000  plane waves:   5518
 k-point ** :  0.42860.28570.5000  plane waves:   5518
 k-point ** :  -.42860.28570.5000  plane waves:   5526
 k-point ** :  -.28570.28570.5000  plane waves:   5526
 k-point ** :  -.14290.28570.5000  plane waves:   5544
 k-point ** :  0.00000.42860.5000  plane waves:   5532
 k-point ** :  0.14290.42860.5000  plane waves:   5500
 k-point ** :  0.28570.42860.5000  plane waves:   5518
 k-point ** :  0.42860.42860.5000  plane waves:   5500
 k-point ** :  -.42860.42860.5000  plane waves:   5532
 k-point ** :  -.28570.42860.5000  plane waves:   5526
 k-point ** :  -.14290.42860.5000  plane waves:   5526

 maximum and minimum number of plane-waves per node :    714   665

 maximum number of plane-waves:   5570
 maximal index in each direction: 
   IXMAX= 14   IYMAX= 14   IZMAX=  7
   IXMIN=-14   IYMIN=-14   IZMIN= -7

 NGX is ok and might be reduce to  58
 NGY is ok and might be reduce to  58
 NGZ is ok and might be reduce to  30

 parallel 3dFFT wavefunction:
    minimum data exchange during FFTs selected (reduces bandwidth)
 parallel 3dFFT charge:
    minimum data exchange during FFTs selected (reduces bandwidth)

 For storing wavefunctions 2258.51 MBYTES are necessary
 For predicting wavefunctions   30.01 MBYTES are necessary
Broyden mixing: mesh for mixing (old mesh)
   NGX = 29   NGY = 29   NGZ = 15
  (NGX  =100   NGY  =100   NGZ  = 50)
 gives a total of  12615 points
 initial charge density was supplied:
 charge density of overlapping atoms calculated
 number of electron  102.0000000 magnetization 
 keeping initial charge density in first step


--------------------------------------------------------------------------------------------------------


 Maximum index for augmentation-charges          640 (set IRDMAX)


--------------------------------------------------------------------------------------------------------


 First call to EWALD:  gamma=   0.244
 Maximum number of real-space cells 2x 2x 4
 Maximum number of reciprocal cells 3x 3x 2

    FEWALD:  VPU time    0.01: CPU time    0.01


----------------------------------------- Iteration    1(   1)  ---------------------------------------


    POTLOK:  VPU time    0.06: CPU time    0.06
    SETDIJ:  VPU time    0.01: CPU time    0.01
    EDDAV :  VPU time  124.31: CPU time  125.02
 BZINTS: Fermi energy: 16.450616;102.000000 electrons
         Band energy: 748.851083;  BLOECHL correction: -0.157047
    DOS   :  VPU time    0.00: CPU time   -0.00
    ------------------------------------------
      LOOP:  VPU time  125.63: CPU time  126.39

 eigenvalue-minimisations  : 62044
 total energy-change (2. order) : 0.5084330E+03  (-0.2331062E+04)
 number of electron  102.0000000 magnetization 
 augmentation part   102.0000000 magnetization 

 Free energy of the ion-electron system (eV)
  ---------------------------------------------------
  alpha Z        PSCENC =       109.80582970
  Ewald energy   TEWEN  =     -4119.33688610
  -1/2 Hartree   DENC   =      -257.03804168
  -V(xc)+E(xc)   XCENC  =      -118.55767817
  PAW double counting   =      1604.26073724    -1251.29682181
  entropy T*S    EENTRO =         0.00000000
  eigenvalues    EBANDS =       748.85108324
  atomic energy  EATOM  =      3791.74482065
  ---------------------------------------------------
  free energy    TOTEN  =       508.43304306 eV

  energy without entropy =      508.43304306  energy(sigma->0) =      508.43304306


--------------------------------------------------------------------------------------------------------




----------------------------------------- Iteration    1(   2)  ---------------------------------------


    EDDAV :  VPU time  153.79: CPU time  154.76
 BZINTS: Fermi energy:  9.877769;102.000000 electrons
         Band energy: 189.651059;  BLOECHL correction: -0.087010
    DOS   :  VPU time    0.00: CPU time   -0.00
    ------------------------------------------
      LOOP:  VPU time  155.06: CPU time  156.08

 eigenvalue-minimisations  : 57774
 total energy-change (2. order) :-0.5592000E+03  (-0.4953958E+03)
 number of electron  102.0000000 magnetization 
 augmentation part   102.0000000 magnetization 

 Free energy of the ion-electron system (eV)
  ---------------------------------------------------
  alpha Z        PSCENC =       109.80582970
  Ewald energy   TEWEN  =     -4119.33688610
  -1/2 Hartree   DENC   =      -257.03804168
  -V(xc)+E(xc)   XCENC  =      -118.55767817
  PAW double counting   =      1604.26073724    -1251.29682181
  entropy T*S    EENTRO =         0.00000000
  eigenvalues    EBANDS =       189.65105937
  atomic energy  EATOM  =      3791.74482065
  ---------------------------------------------------
  free energy    TOTEN  =       -50.76698080 eV

  energy without entropy =      -50.76698080  energy(sigma->0) =      -50.76698080


--------------------------------------------------------------------------------------------------------




----------------------------------------- Iteration    1(   3)  ---------------------------------------


    EDDAV :  VPU time  144.37: CPU time  145.19
 BZINTS: Fermi energy:  9.016010;102.000000 electrons
         Band energy: 127.970886;  BLOECHL correction: -0.084497
    DOS   :  VPU time    0.00: CPU time   -0.00
    ------------------------------------------
      LOOP:  VPU time  145.59: CPU time  146.48

 eigenvalue-minimisations  : 59364
 total energy-change (2. order) :-0.6168017E+02  (-0.5707916E+02)
 number of electron  102.0000000 magnetization 
 augmentation part   102.0000000 magnetization 

 Free energy of the ion-electron system (eV)
  ---------------------------------------------------
  alpha Z        PSCENC =       109.80582970
  Ewald energy   TEWEN  =     -4119.33688610
  -1/2 Hartree   DENC   =      -257.03804168
  -V(xc)+E(xc)   XCENC  =      -118.55767817
  PAW double counting   =      1604.26073724    -1251.29682181
  entropy T*S    EENTRO =         0.00000000
  eigenvalues    EBANDS =       127.97088593
  atomic energy  EATOM  =      3791.74482065
  ---------------------------------------------------
  free energy    TOTEN  =      -112.44715424 eV

  energy without entropy =     -112.44715424  energy(sigma->0) =     -112.44715424


--------------------------------------------------------------------------------------------------------




----------------------------------------- Iteration    1(   4)  ---------------------------------------


    EDDAV :  VPU time  194.00: CPU time  194.64
 BZINTS: Fermi energy:  8.934160;102.000000 electrons
         Band energy: 123.186501;  BLOECHL correction: -0.083633
    DOS   :  VPU time    0.00: CPU time   -0.00
    ------------------------------------------
      LOOP:  VPU time  195.20: CPU time  195.91

 eigenvalue-minimisations  : 84768
 total energy-change (2. order) :-0.4784385E+01  (-0.4639035E+01)
 number of electron  102.0000000 magnetization 
 augmentation part   102.0000000 magnetization 

 Free energy of the ion-electron system (eV)
  ---------------------------------------------------
  alpha Z        PSCENC =       109.80582970
  Ewald energy   TEWEN  =     -4119.33688610
  -1/2 Hartree   DENC   =      -257.03804168
  -V(xc)+E(xc)   XCENC  =      -118.55767817
  PAW double counting   =      1604.26073724    -1251.29682181
  entropy T*S    EENTRO =         0.00000000
  eigenvalues    EBANDS =       123.18650107
  atomic energy  EATOM  =      3791.74482065
  ---------------------------------------------------
  free energy    TOTEN  =      -117.23153910 eV

  energy without entropy =     -117.23153910  energy(sigma->0) =     -117.23153910


--------------------------------------------------------------------------------------------------------




----------------------------------------- Iteration    1(   5)  ---------------------------------------


    EDDAV :  VPU time  209.32: CPU time  210.35
 BZINTS: Fermi energy:  8.927654;102.000000 electrons
         Band energy: 122.898866;  BLOECHL correction: -0.083130
    DOS   :  VPU time    0.00: CPU time   -0.00
    CHARGE:  VPU time    2.58: CPU time    2.59
    MIXING:  VPU time    0.00: CPU time    0.00
    ------------------------------------------
      LOOP:  VPU time  213.13: CPU time  214.25

 eigenvalue-minimisations  : 94656
 total energy-change (2. order) :-0.2876346E+00  (-0.2849378E+00)
 number of electron  102.0000011 magnetization 
 augmentation part    -8.3024660 magnetization 

 Broyden mixing:
  rms(total) = 0.64877E+00    rms(broyden)= 0.64872E+00
  rms(prec ) = 0.88721E+00
  weight for this iteration     100.00

 Free energy of the ion-electron system (eV)
  ---------------------------------------------------
  alpha Z        PSCENC =       109.80582970
  Ewald energy   TEWEN  =     -4119.33688610
  -1/2 Hartree   DENC   =      -257.03804168
  -V(xc)+E(xc)   XCENC  =      -118.55767817
  PAW double counting   =      1604.26073724    -1251.29682181
  entropy T*S    EENTRO =         0.00000000
  eigenvalues    EBANDS =       122.89886647
  atomic energy  EATOM  =      3791.74482065
  ---------------------------------------------------
  free energy    TOTEN  =      -117.51917370 eV

  energy without entropy =     -117.51917370  energy(sigma->0) =     -117.51917370


--------------------------------------------------------------------------------------------------------




----------------------------------------- Iteration    1(   6)  ---------------------------------------


    POTLOK:  VPU time    0.18: CPU time    0.18
    SETDIJ:  VPU time    0.02: CPU time    0.02
    EDDAV :  VPU time  201.92: CPU time  203.26
 BZINTS: Fermi energy:  8.934755;102.000000 electrons
         Band energy: 122.259803;  BLOECHL correction: -0.082445
    DOS   :  VPU time   -0.00: CPU time   -0.00
    CHARGE:  VPU time    2.55: CPU time    2.56
    MIXING:  VPU time    0.00: CPU time    0.00
    ------------------------------------------
      LOOP:  VPU time  205.87: CPU time  207.29

 eigenvalue-minimisations  : 88952
 total energy-change (2. order) : 0.4066366E+00  (-0.1995872E-01)
 number of electron  102.0000011 magnetization 
 augmentation part    -8.3303570 magnetization 

 Broyden mixing:
  rms(total) = 0.38692E+00    rms(broyden)= 0.38692E+00
  rms(prec ) = 0.50987E+00
  weight for this iteration     100.00

 eigenvalues of (default mixing * dielectric matrix)
  average eigenvalue GAMMA=   2.3832
  2.3832

 Free energy of the ion-electron system (eV)
  ---------------------------------------------------
  alpha Z        PSCENC =       109.80582970
  Ewald energy   TEWEN  =     -4119.33688610
  -1/2 Hartree   DENC   =      -254.89478633
  -V(xc)+E(xc)   XCENC  =      -117.52529577
  PAW double counting   =      1635.72486716    -1284.89088988
  entropy T*S    EENTRO =         0.00000000
  eigenvalues    EBANDS =       122.25980346
  atomic energy  EATOM  =      3791.74482065
  ---------------------------------------------------
  free energy    TOTEN  =      -117.11253711 eV

  energy without entropy =     -117.11253711  energy(sigma->0) =     -117.11253711


--------------------------------------------------------------------------------------------------------




----------------------------------------- Iteration    1(   7)  ---------------------------------------


    POTLOK:  VPU time    0.06: CPU time    0.12
    SETDIJ:  VPU time    0.01: CPU time    0.02
    EDDAV :  VPU time  198.20: CPU time  199.69
 BZINTS: Fermi energy:  8.952566;102.000000 electrons
         Band energy: 122.649448;  BLOECHL correction: -0.081945
    DOS   :  VPU time    0.00: CPU time   -0.00
    CHARGE:  VPU time    2.56: CPU time    2.57
    MIXING:  VPU time    0.00: CPU time    0.00
    ------------------------------------------
      LOOP:  VPU time  202.09: CPU time  203.71

 eigenvalue-minimisations  : 83272
 total energy-change (2. order) : 0.1154796E+00  (-0.2774526E-01)
 number of electron  102.0000011 magnetization 
 augmentation part    -8.3539509 magnetization 

 Broyden mixing:
  rms(total) = 0.83609E-01    rms(broyden)= 0.83597E-01
  rms(prec ) = 0.11094E+00
  weight for this iteration     100.00

 eigenvalues of (default mixing * dielectric matrix)
  average eigenvalue GAMMA=   1.9236
  1.2623  2.5849

 Free energy of the ion-electron system (eV)
  ---------------------------------------------------
  alpha Z        PSCENC =       109.80582970
  Ewald energy   TEWEN  =     -4119.33688610
  -1/2 Hartree   DENC   =      -254.06931395
  -V(xc)+E(xc)   XCENC  =      -115.97340464
  PAW double counting   =      1682.52338502    -1334.34093588
  entropy T*S    EENTRO =         0.00000000
  eigenvalues    EBANDS =       122.64944766
  atomic energy  EATOM  =      3791.74482065
  ---------------------------------------------------
  free energy    TOTEN  =      -116.99705754 eV

  energy without entropy =     -116.99705754  energy(sigma->0) =     -116.99705754


--------------------------------------------------------------------------------------------------------




----------------------------------------- Iteration    1(   8)  ---------------------------------------


    POTLOK:  VPU time    0.06: CPU time    0.06
    SETDIJ:  VPU time    0.02: CPU time    0.01
    EDDAV :  VPU time  177.02: CPU time  177.97
 BZINTS: Fermi energy:  8.957758;102.000000 electrons
         Band energy: 123.379866;  BLOECHL correction: -0.081821
    DOS   :  VPU time    0.00: CPU time   -0.00
    CHARGE:  VPU time    2.59: CPU time    2.59
    MIXING:  VPU time    0.00: CPU time    0.00
    ------------------------------------------
      LOOP:  VPU time  180.94: CPU time  181.96

 eigenvalue-minimisations  : 82216
 total energy-change (2. order) : 0.3149017E-02  (-0.4104779E-02)
 number of electron  102.0000011 magnetization 
 augmentation part    -8.3658985 magnetization 

 Broyden mixing:
  rms(total) = 0.19083E-01    rms(broyden)= 0.19082E-01
  rms(prec ) = 0.25557E-01
  weight for this iteration     100.00

 eigenvalues of (default mixing * dielectric matrix)
  average eigenvalue GAMMA=   1.7829
  2.5832  1.3827  1.3827

 Free energy of the ion-electron system (eV)
  ---------------------------------------------------
  alpha Z        PSCENC =       109.80582970
  Ewald energy   TEWEN  =     -4119.33688610
  -1/2 Hartree   DENC   =      -254.64006401
  -V(xc)+E(xc)   XCENC  =      -115.60199386
  PAW double counting   =      1694.66843166    -1347.01391248
  entropy T*S    EENTRO =         0.00000000
  eigenvalues    EBANDS =       123.37986592
  atomic energy  EATOM  =      3791.74482065
  ---------------------------------------------------
  free energy    TOTEN  =      -116.99390852 eV

  energy without entropy =     -116.99390852  energy(sigma->0) =     -116.99390852


--------------------------------------------------------------------------------------------------------




----------------------------------------- Iteration    1(   9)  ---------------------------------------


    POTLOK:  VPU time    0.06: CPU time    0.08
    SETDIJ:  VPU time    0.02: CPU time    0.01
    EDDAV :  VPU time  199.70: CPU time  200.49
 BZINTS: Fermi energy:  8.958243;102.000000 electrons
         Band energy: 123.516258;  BLOECHL correction: -0.081811
    DOS   :  VPU time    0.00: CPU time   -0.00
    CHARGE:  VPU time    2.56: CPU time    2.56
    MIXING:  VPU time    0.00: CPU time    0.00
    ------------------------------------------
      LOOP:  VPU time  203.56: CPU time  204.46

 eigenvalue-minimisations  : 81512
 total energy-change (2. order) : 0.5870504E-04  (-0.3671572E-03)
 number of electron  102.0000011 magnetization 
 augmentation part    -8.3677252 magnetization 

 Broyden mixing:
  rms(total) = 0.71276E-02    rms(broyden)= 0.71273E-02
  rms(prec ) = 0.92278E-02
  weight for this iteration     100.00

 eigenvalues of (default mixing * dielectric matrix)
  average eigenvalue GAMMA=   1.7625
  2.6468  2.1415  0.9966  1.2649

 Free energy of the ion-electron system (eV)
  ---------------------------------------------------
  alpha Z        PSCENC =       109.80582970
  Ewald energy   TEWEN  =     -4119.33688610
  -1/2 Hartree   DENC   =      -254.80645375
  -V(xc)+E(xc)   XCENC  =      -115.55008049
  PAW double counting   =      1695.32429587    -1347.69163344
  entropy T*S    EENTRO =         0.00000000
  eigenvalues    EBANDS =       123.51625774
  atomic energy  EATOM  =      3791.74482065
  ---------------------------------------------------
  free energy    TOTEN  =      -116.99384981 eV

  energy without entropy =     -116.99384981  energy(sigma->0) =     -116.99384981


--------------------------------------------------------------------------------------------------------




----------------------------------------- Iteration    1(  10)  ---------------------------------------


    POTLOK:  VPU time    0.06: CPU time    0.09
    SETDIJ:  VPU time    0.02: CPU time    0.01
[...]
     98      14.4785      0.00000
     99      14.5675      0.00000
    100      14.5675      0.00000
    101      14.8684      0.00000
    102      14.8684      0.00000
    103      15.1582      0.00000
    104      15.1582      0.00000
    105      15.3774      0.00000
    106      15.3774      0.00000
    107      15.5450      0.00000
    108      15.5450      0.00000
    109      15.6598      0.00000
    110      15.6598      0.00000
    111      15.8071      0.00000
    112      15.8071      0.00000
    113      16.0553      0.00000
    114      16.0553      0.00000
    115      16.3563      0.00000
    116      16.3563      0.00000
    117      17.0624      0.00000
    118      17.0624      0.00000
    119      17.4997      0.00000
    120      17.4997      0.00000
    121      17.9476      0.00000
    122      17.9476      0.00000
    123      18.2037      0.00000
    124      18.2037      0.00000
    125      18.3854      0.00000
    126      18.3854      0.00000
    127      18.5324      0.00000
    128      18.5324      0.00000
    129      18.9517      0.00000
    130      18.9517      0.00000
    131      19.3974      0.00000
    132      19.3974      0.00000
    133      19.4921      0.00000
    134      19.4921      0.00000
    135      19.6625      0.00000
    136      19.6625      0.00000
    137      20.1091      0.00000
    138      20.1092      0.00000
    139      20.3909      0.00000
    140      20.3918      0.00000
    141      20.5812      0.00000
    142      20.5826      0.00000
    143      20.9358      0.00000
    144      20.9545      0.00000
    145      21.2813      0.00000
    146      21.4754      0.00000


--------------------------------------------------------------------------------------------------------


 soft charge-density along one line, spin component           1
         0         1         2         3         4         5         6         7         8         9
 total charge-density along one line
 
 pseudopotential strength for first ion, spin component:           1
 52.775  -4.027  -0.000   0.000   0.000   0.000   0.000   0.000
 -4.027  -4.560  -0.000  -0.000  -0.000   0.000   0.000   0.000
 -0.000  -0.000  18.855   0.000   0.000   0.875   0.000   0.000
  0.000  -0.000   0.000  18.861  -0.000   0.000   0.887  -0.000
  0.000  -0.000   0.000  -0.000  18.855   0.000  -0.000   0.875
  0.000   0.000   0.875   0.000   0.000   6.921   0.000   0.000
  0.000   0.000   0.000   0.887  -0.000   0.000   6.925  -0.000
  0.000   0.000   0.000  -0.000   0.875   0.000  -0.000   6.921
  0.000  -0.000   0.000   0.000  -0.001   0.000   0.000  -0.000
  0.000  -0.000   0.000  -0.000   0.000   0.000   0.000   0.000
  0.002  -0.004   0.000   0.000  -0.000  -0.000   0.000  -0.000
 -0.000   0.000   0.000   0.000   0.000   0.000   0.000   0.000
  0.000  -0.000  -0.001   0.000   0.000  -0.000   0.000  -0.000
 -0.000  -0.000  -0.000  -0.000   0.000  -0.000  -0.000   0.000
 -0.000  -0.000  -0.000  -0.000  -0.000  -0.000   0.000  -0.000
 -0.000  -0.000   0.000  -0.000  -0.000   0.000  -0.000   0.000
  0.000   0.000  -0.000  -0.000  -0.000  -0.000  -0.000  -0.000
 -0.000  -0.000   0.000  -0.000   0.000   0.000  -0.000  -0.000
  0.000   0.000  -0.000   0.000  -0.000   0.000   0.000   0.000
 -0.000  -0.000   0.000  -0.000  -0.000  -0.000   0.000   0.000
  0.000   0.000  -0.012  -0.000   0.000   0.001   0.000  -0.000
 -0.000  -0.000   0.000  -0.013  -0.000  -0.000   0.001   0.000
 -0.000  -0.000   0.000   0.000  -0.012  -0.000  -0.000   0.001
 -0.000  -0.000   0.000  -0.000   0.000  -0.000   0.000  -0.000
  0.000   0.000   0.000  -0.000  -0.000  -0.000  -0.000   0.000
 -0.000  -0.000   0.000  -0.000   0.000  -0.000  -0.000  -0.000
  0.000   0.000  -0.000   0.000   0.000  -0.000  -0.000  -0.000
 -0.000  -0.000   0.010   0.000  -0.000   0.000  -0.000   0.000
  0.000   0.000  -0.000   0.010   0.000  -0.000   0.000   0.000
  0.000   0.000  -0.000  -0.000   0.010   0.000   0.000   0.000
  0.000   0.000  -0.000   0.000  -0.000  -0.000  -0.000   0.000
 -0.000  -0.000  -0.000   0.000   0.000   0.000   0.000  -0.000
 total augmentation occupancy for first ion, spin component:           1
  2.272  -0.500   0.000   0.000   0.000  -0.000  -0.000  -0.000   0.000   0.007   0.070   0.007  -0.000   0.000  -0.003  -0.043
 -0.500   0.883  -0.000  -0.000  -0.000   0.000   0.000   0.000  -0.000  -0.011  -0.104  -0.011   0.000  -0.000   0.005   0.093
  0.000  -0.000   2.026   0.000   0.000  -0.018  -0.000  -0.000  -0.000  -0.000  -0.000  -0.000  -0.011   0.000   0.000  -0.000
  0.000  -0.000   0.000   2.013   0.000  -0.000  -0.007  -0.000   0.000  -0.000   0.000   0.000   0.000   0.000   0.000  -0.000
  0.000  -0.000   0.000   0.000   2.026  -0.000  -0.000  -0.018  -0.011   0.000  -0.000   0.000   0.000   0.008   0.000  -0.000
 -0.000   0.000  -0.018  -0.000  -0.000   0.018   0.000   0.000   0.000   0.000  -0.000   0.000   0.005  -0.000  -0.000   0.000
 -0.000   0.000  -0.000  -0.007  -0.000   0.000   0.012   0.000  -0.000   0.000  -0.000  -0.000  -0.000  -0.000  -0.000   0.000
 -0.000   0.000  -0.000  -0.000  -0.018   0.000   0.000   0.018   0.005  -0.000   0.000  -0.000  -0.000  -0.004  -0.000  -0.000
  0.000  -0.000  -0.000   0.000  -0.011   0.000  -0.000   0.005   0.294  -0.012  -0.000  -0.007   0.000  -0.227   0.004   0.000
  0.007  -0.011  -0.000  -0.000   0.000   0.000   0.000  -0.000  -0.012   0.201  -0.003   0.000   0.005   0.004  -0.159   0.001
  0.070  -0.104  -0.000   0.000  -0.000  -0.000  -0.000   0.000  -0.000  -0.003   0.214  -0.002  -0.000   0.000   0.001  -0.164
  0.007  -0.011  -0.000   0.000   0.000   0.000  -0.000  -0.000  -0.007   0.000  -0.002   0.202   0.001   0.003  -0.000   0.000
 -0.000   0.000  -0.011   0.000   0.000   0.005  -0.000  -0.000   0.000   0.005  -0.000   0.001   0.294  -0.000  -0.002   0.000
  0.000  -0.000   0.000   0.000   0.008  -0.000  -0.000  -0.004  -0.227   0.004   0.000   0.003  -0.000   0.201  -0.001  -0.000
 -0.003   0.005   0.000   0.000   0.000  -0.000  -0.000  -0.000   0.004  -0.159   0.001  -0.000  -0.002  -0.001   0.147  -0.000
 -0.043   0.093  -0.000  -0.000  -0.000   0.000   0.000  -0.000   0.000   0.001  -0.164   0.000   0.000  -0.000  -0.000   0.144
 -0.003   0.005  -0.000   0.000   0.000   0.000   0.000  -0.000   0.003  -0.000   0.000  -0.159   0.000  -0.001   0.000  -0.000
  0.000  -0.000   0.007  -0.000  -0.000  -0.004   0.000   0.000  -0.000  -0.002   0.000   0.000  -0.227   0.000   0.000  -0.000
 -0.013   0.021   0.000  -0.000   0.000   0.000   0.000   0.000  -0.000  -0.002  -0.006  -0.001   0.000   0.000   0.001   0.003
 -0.001   0.001   0.001   0.000   0.001  -0.000  -0.000  -0.000  -0.001  -0.000  -0.000   0.009  -0.000   0.001   0.000   0.000
 -0.000   0.000   0.015   0.000  -0.000  -0.006  -0.000  -0.000  -0.000  -0.001   0.000   0.000  -0.002   0.000   0.000  -0.000
 -0.000   0.000  -0.001   0.014  -0.001   0.000  -0.004   0.000   0.000  -0.000  -0.000  -0.000   0.000   0.000   0.000   0.000
  0.000  -0.000   0.000   0.000   0.015  -0.000  -0.000  -0.006  -0.002   0.001  -0.000   0.001   0.000   0.001  -0.000   0.000
 -0.001   0.001  -0.001   0.000   0.001   0.000  -0.000  -0.000  -0.002   0.009  -0.000   0.000   0.001   0.001  -0.005   0.000
  0.000  -0.000   0.000  -0.001   0.000  -0.000   0.000   0.000  -0.000  -0.000   0.000   0.000   0.000   0.000   0.000  -0.000
 -0.010   0.015  -0.000  -0.000  -0.000   0.000   0.000   0.000  -0.000  -0.001  -0.004  -0.001   0.000   0.000   0.001   0.002
 -0.000   0.001   0.000   0.000   0.000  -0.000  -0.000  -0.000  -0.001  -0.000  -0.000   0.006  -0.000   0.000   0.000   0.000
 -0.000   0.000   0.009   0.000  -0.000  -0.004  -0.000  -0.000  -0.000  -0.000   0.000   0.000  -0.001   0.000   0.000  -0.000
 -0.000   0.000  -0.001   0.010  -0.001   0.000  -0.003   0.000   0.000  -0.000  -0.000  -0.000   0.000   0.000   0.000   0.000
  0.000  -0.000   0.000   0.000   0.009  -0.000  -0.000  -0.004  -0.001   0.001  -0.000   0.000   0.000   0.000  -0.000   0.000
 -0.000   0.001  -0.000   0.000   0.000   0.000  -0.000  -0.000  -0.001   0.006  -0.000   0.000   0.001   0.001  -0.004   0.000
  0.000  -0.000   0.000  -0.001  -0.000  -0.000   0.000   0.000  -0.000  -0.000   0.000   0.000   0.000   0.000   0.000  -0.000


------------------------ aborting loop because EDIFF is reached ----------------------------------------


 


 total charge     
 
# of ion     s       p       d       f       tot
------------------------------------------------
  1        2.010   5.637   0.786   0.074   8.507
  2        2.010   5.637   0.786   0.074   8.508
  3        0.784   0.886   0.000   0.000   1.669
  4        0.784   0.886   0.000   0.000   1.669
  5        0.781   0.841   0.000   0.000   1.623
  6        0.781   0.841   0.000   0.000   1.622
  7        0.781   0.841   0.000   0.000   1.623
  8        0.781   0.841   0.000   0.000   1.623
  9        0.781   0.841   0.000   0.000   1.622
 10        0.781   0.842   0.000   0.000   1.623
 11        0.763   0.851   0.000   0.000   1.614
 12        0.763   0.851   0.000   0.000   1.614
 13        0.763   0.851   0.000   0.000   1.614
 14        0.763   0.851   0.000   0.000   1.614
 15        0.763   0.851   0.000   0.000   1.614
 16        0.763   0.851   0.000   0.000   1.614
 17        0.811   0.800   0.000   0.000   1.611
 18        0.811   0.800   0.000   0.000   1.611
 19        0.811   0.800   0.000   0.000   1.611
 20        0.811   0.800   0.000   0.000   1.611
 21        0.811   0.800   0.000   0.000   1.611
 22        0.811   0.800   0.000   0.000   1.611
------------------------------------------------
tot       19.718  28.003   1.572   0.148  49.441

 


--------------------------------------------------------------------------------------------------------


    CHARGE:  VPU time    2.58: CPU time    2.58
    FORLOC:  VPU time    0.01: CPU time    0.01
    FORNL :  VPU time   26.48: CPU time   26.52
    STRESS:  VPU time   37.82: CPU time   37.91
    FORCOR:  VPU time    0.06: CPU time    0.07
    FORHAR:  VPU time    0.02: CPU time    0.03
    MIXING:  VPU time    0.00: CPU time    0.00


--------------------------------------------------------------------------------------------------------



  FREE ENERGIE OF THE ION-ELECTRON SYSTEM (eV)
  ---------------------------------------------------
  free  energy   TOTEN  =      -116.993856 eV

  energy  without entropy=     -116.993856  energy(sigma->0) =     -116.993856
 

  FORCE on cell =-STRESS in cart. coord.  units (eV/reduce length):
  Direction    X        Y        Z        XY       YZ       ZX
  --------------------------------------------------------------------------------------
  Alpha Z    109.81    109.81    109.81
  Ewald    -1376.40  -1376.41  -1366.54     -0.00     -0.00     -0.00
  Hartree     89.63     89.60     75.62      0.00      0.00     -0.00
  E(xc)     -330.85   -330.85   -331.42     -0.00     -0.00     -0.00
  Local     -287.36   -287.30   -275.54     -0.01     -0.00      0.00
  n-local   1077.92   1077.92   1089.65      0.00     -0.23     -0.21
  augment   -210.91   -210.92   -211.24     -0.00      0.00      0.00
  Kinetic    928.07    928.07    910.33     -0.00     -3.76     -3.54
  -------------------------------------------------------------------------------------
  Total       -0.10     -0.08      0.66     -0.01      0.00      0.00
  in kB       -0.43     -0.35      2.77     -0.02      0.00      0.00
  external pressure =        0.66 kB  Pullay stress =        0.00 kB


 VOLUME and BASIS-vectors are now :
 -----------------------------------------------------------------------------
  energy-cutoff  :      343.48
  volume of cell :      382.14
      direct lattice vectors                 reciprocal lattice vectors
     4.804537155 -8.321702458  0.000000000     0.104068297 -0.060083859  0.000000000
     4.804537155  8.321702458  0.000000000     0.104068297  0.060083859  0.000000000
     0.000000000  0.000000000  4.778851886     0.000000000  0.000000000  0.209255282

  length of vectors
     9.609074309  9.609074309  4.778851886     0.120167719  0.120167719  0.209255282


 FORCES acting on ions
    electron-ion (+dipol)            ewald-force                    non-local-force                 convergence-correction
 -----------------------------------------------------------------------------------------------
   -.152E-03 0.223E-01 -.533E-10   0.161E-02 -.167E-01 -.120E-14   -.813E-04 -.558E-03 0.434E-18   -.121E-02 -.502E-02 -.471E-13
   0.152E-03 -.223E-01 0.428E-10   -.161E-02 0.167E-01 -.308E-14   0.813E-04 0.558E-03 -.434E-18   0.121E-02 0.502E-02 0.191E-12
   0.294E-04 -.812E-03 -.264E-10   -.142E-04 0.524E-03 0.270E-15   0.747E-04 0.825E-03 0.867E-18   -.144E-04 -.990E-04 -.226E-13
   -.294E-04 0.812E-03 0.264E-10   0.142E-04 -.524E-03 -.153E-15   -.747E-04 -.825E-03 -.867E-18   0.144E-04 0.990E-04 0.219E-13
   0.301E+00 -.163E+00 0.555E-07   -.627E+00 0.349E+00 0.563E-15   0.328E+00 -.189E+00 0.000E+00   0.708E-04 0.754E-03 0.109E-13
   -.111E-01 0.349E+00 -.661E-10   0.111E-01 -.721E+00 0.264E-14   -.663E-03 0.377E+00 -.173E-17   0.504E-03 -.178E-02 0.409E-13
   -.289E+00 -.179E+00 -.558E-07   0.617E+00 0.368E+00 0.317E-14   -.328E+00 -.190E+00 0.000E+00   -.716E-03 -.340E-03 0.504E-13
   -.301E+00 0.163E+00 -.555E-07   0.627E+00 -.349E+00 -.102E-14   -.328E+00 0.189E+00 0.000E+00   -.708E-04 -.754E-03 -.165E-13
   0.111E-01 -.349E+00 0.661E-10   -.111E-01 0.721E+00 -.517E-15   0.663E-03 -.377E+00 0.173E-17   -.504E-03 0.178E-02 -.490E-13
   0.289E+00 0.179E+00 0.558E-07   -.617E+00 -.368E+00 -.195E-14   0.328E+00 0.190E+00 0.000E+00   0.716E-03 0.340E-03 -.573E-13
   0.677E+01 0.390E+01 -.542E-07   -.641E+01 -.369E+01 -.547E-14   -.371E+00 -.212E+00 0.694E-17   0.760E-02 0.257E-02 0.181E-13
   -.675E+01 0.393E+01 0.526E-07   0.639E+01 -.371E+01 -.143E-14   0.370E+00 -.215E+00 0.173E-17   -.699E-02 0.156E-02 0.379E-13
   -.158E-01 -.781E+01 0.496E-09   0.156E-01 0.739E+01 -.258E-14   0.131E-02 0.429E+00 0.000E+00   -.713E-03 -.584E-02 0.243E-13
   -.677E+01 -.390E+01 0.542E-07   0.641E+01 0.369E+01 -.524E-14   0.371E+00 0.212E+00 -.694E-17   -.760E-02 -.257E-02 -.290E-13
   0.675E+01 -.393E+01 -.526E-07   -.639E+01 0.371E+01 -.150E-14   -.370E+00 0.215E+00 -.173E-17   0.699E-02 -.156E-02 -.548E-13
   0.158E-01 0.781E+01 -.497E-09   -.156E-01 -.739E+01 -.191E-14   -.131E-02 -.429E+00 0.000E+00   0.713E-03 0.584E-02 -.257E-13
   0.881E+00 0.531E+00 0.178E-06   -.887E+00 -.535E+00 0.313E-14   0.295E-01 0.187E-01 0.000E+00   0.297E-02 0.836E-03 -.208E-13
   -.893E+00 0.506E+00 -.178E-06   0.902E+00 -.509E+00 0.585E-16   -.317E-01 0.157E-01 0.000E+00   -.336E-02 0.148E-02 -.337E-13
   0.122E-01 -.103E+01 0.301E-08   -.144E-01 0.104E+01 -.130E-14   0.222E-02 -.357E-01 0.000E+00   0.441E-03 -.338E-02 -.265E-13
   -.881E+00 -.531E+00 -.178E-06   0.887E+00 0.535E+00 0.322E-14   -.295E-01 -.187E-01 0.000E+00   -.297E-02 -.836E-03 0.251E-13
   0.893E+00 -.506E+00 0.178E-06   -.902E+00 0.509E+00 0.155E-14   0.317E-01 -.157E-01 0.000E+00   0.336E-02 -.148E-02 0.453E-13
   -.122E-01 0.103E+01 -.301E-08   0.144E-01 -.104E+01 0.141E-14   -.222E-02 0.357E-01 0.000E+00   -.441E-03 0.338E-02 0.201E-13
 -----------------------------------------------------------------------------------------------
   -.147E-11 0.950E-12 -.946E-11   -.325E-13 0.409E-13 -.113E-13   0.179E-15 0.694E-17 0.000E+00   0.341E-13 0.231E-13 0.103E-12
 
 
 POSITION                                       TOTAL-FORCE (eV/Angst)
 -----------------------------------------------------------------------------------
      4.80453      2.77399      1.19471         0.000169      0.000065      0.000000
      4.80454     -2.77399      3.58414        -0.000169     -0.000065     -0.000000
      0.00000      0.00000      1.19471         0.000075      0.000438      0.000000
      0.00000      0.00000      3.58414        -0.000075     -0.000438      0.000000
      2.73462      3.96908      3.58414         0.002020     -0.002104     -0.000000
      4.80444      0.38368      3.58414        -0.000138      0.002711      0.000000
      6.87455      3.96892      3.58414        -0.001986     -0.001451      0.000000
      6.87446     -3.96908      1.19471        -0.002020      0.002104      0.000000
      4.80463     -0.38368      1.19471         0.000138     -0.002711      0.000000
      2.73452     -3.96892      1.19471         0.001986      0.001451     -0.000000
      2.64030      1.52433      3.58414        -0.003467     -0.001049     -0.000000
      6.96880      1.52438      3.58414         0.003058     -0.000953      0.000000
      4.80451      5.27302      3.58414         0.000412      0.002699      0.000000
      6.96877     -1.52433      1.19471         0.003467      0.001049      0.000000
      2.64027     -1.52438      1.19471        -0.003058      0.000953     -0.000000
      4.80457     -5.27302      1.19471        -0.000412     -0.002699     -0.000000
      2.05847      1.18930      1.19471         0.025869      0.015678     -0.000000
      7.54992      1.18810      1.19471        -0.026437      0.014019     -0.000000
      4.80523      5.94442      1.19471         0.000490     -0.030117      0.000000
      7.55061     -1.18930      3.58414        -0.025869     -0.015678      0.000000
      2.05916     -1.18810      3.58414         0.026437     -0.014019      0.000000
      4.80384     -5.94442      3.58414        -0.000490      0.030117     -0.000000
 -----------------------------------------------------------------------------------
    total drift:                               -0.000000      0.000000     -0.000000


--------------------------------------------------------------------------------------------------------



 mean value of Nose-termostat <S>:     1.000 mean value of <T> :     0.000
 mean temperature <T/S>/<1/S>  :     0.000

     LOOP+:  VPU time 1845.35: CPU time 1856.07
 


 total charge     
 
# of ion     s       p       d       f       tot
------------------------------------------------
  1        2.010   5.637   0.786   0.074   8.507
  2        2.010   5.637   0.786   0.074   8.508
  3        0.784   0.886   0.000   0.000   1.669
  4        0.784   0.886   0.000   0.000   1.669
  5        0.781   0.841   0.000   0.000   1.623
  6        0.781   0.841   0.000   0.000   1.622
  7        0.781   0.841   0.000   0.000   1.623
  8        0.781   0.841   0.000   0.000   1.623
  9        0.781   0.841   0.000   0.000   1.622
 10        0.781   0.842   0.000   0.000   1.623
 11        0.763   0.851   0.000   0.000   1.614
 12        0.763   0.851   0.000   0.000   1.614
 13        0.763   0.851   0.000   0.000   1.614
 14        0.763   0.851   0.000   0.000   1.614
 15        0.763   0.851   0.000   0.000   1.614
 16        0.763   0.851   0.000   0.000   1.614
 17        0.811   0.800   0.000   0.000   1.611
 18        0.811   0.800   0.000   0.000   1.611
 19        0.811   0.800   0.000   0.000   1.611
 20        0.811   0.800   0.000   0.000   1.611
 21        0.811   0.800   0.000   0.000   1.611
 22        0.811   0.800   0.000   0.000   1.611
------------------------------------------------
tot       19.718  28.003   1.572   0.148  49.441

 
 BZINTS: Fermi energy:  8.958463;102.000000 electrons
         Band energy: 123.542479;  BLOECHL correction: -0.081801
  
  
 General timing and accounting informations for this job:
 ========================================================
  
                  Total CPU time used (sec):     1908.755
                            User time (sec):     1896.827
                          System time (sec):       11.929
                         Elapsed time (sec):     1921.880
  
                   Maximum memory used (kb):      253264.
                   Average memory used (kb):           0.
  
                          Minor page faults:        64230
                          Major page faults:            0
                 Voluntary context switches:          696
