 vasp.4.6.35 3Apr08 complex 
 executed on             LinuxIFC date 2014.12.31  22:05:14
 running on   32 nodes
 distr:  one band on   16 nodes,    2 groups


--------------------------------------------------------------------------------------------------------


 INCAR:
 POTCAR:   PAW_PBE I 08Apr2002                    
 POTCAR:    PAW_PBE P 17Jan2003                   
 POTCAR:    PAW_PBE S 17Jan2003                   
 POTCAR:   PAW_PBE I 08Apr2002                    
   VRHFIN =I : s2p5                                                             
   LEXCH  = PE                                                                  
   EATOM  =   315.8678 eV,   23.2156 Ry                                         
                                                                                
   TITEL  = PAW_PBE I 08Apr2002                                                 
   LULTRA =        F    use ultrasoft PP ?                                      
   IUNSCR =        1    unscreen: 0-lin 1-nonlin 2-no                           
   RPACOR =    2.200    partial core radius                                     
   POMASS =  126.904; ZVAL   =    7.000    mass and valenz                      
   RCORE  =    2.300    outmost cutoff radius                                   
   RWIGS  =    2.810; RWIGS  =    1.487    wigner-seitz radius (au A)           
   ENMAX  =  175.647; ENMIN  =  131.735 eV                                      
   ICORE  =        3    local potential                                         
   LCOR   =        T    correct aug charges                                     
   LPAW   =        T    paw PP                                                  
   EAUG   =  370.139                                                            
   DEXC   =    -.080                                                            
   RMAX   =    3.479    core radius for proj-oper                               
   RAUG   =    1.300    factor for augmentation sphere                          
   RDEP   =    2.392    radius for radial grids                                 
   QCUT   =   -3.593; QGAM   =    7.186    optimization parameters              
                                                                                
   Description                                                                  
     l     E      TYP  RCUT    TYP  RCUT                                        
     0   .000     23  2.300                                                     
     0   .000     23  2.300                                                     
     1   .000     23  2.300                                                     
     1   .000     23  2.300                                                     
     2   .000     23  2.300                                                     
     3  -.100     23  2.300                                                     
  local pseudopotential read in
  partial core-charges read in
  atomic valenz-charges read in
  non local Contribution for L=           0  read in
    real space projection operators read in
  non local Contribution for L=           0  read in
    real space projection operators read in
  non local Contribution for L=           1  read in
    real space projection operators read in
  non local Contribution for L=           1  read in
    real space projection operators read in
  non local Contribution for L=           2  read in
    real space projection operators read in
    PAW grid and wavefunctions read in
 
   number of l-projection  operators is LMAX  =           5
   number of lm-projection operators is LMMAX =          13
 
 POTCAR:    PAW_PBE P 17Jan2003                   
   VRHFIN =P : s2p3                                                             
   LEXCH  = PE                                                                  
   EATOM  =   176.0430 eV,   12.9388 Ry                                         
                                                                                
   TITEL  = PAW_PBE P 17Jan2003                                                 
   LULTRA =        F    use ultrasoft PP ?                                      
   IUNSCR =        1    unscreen: 0-lin 1-nonlin 2-no                           
   RPACOR =    1.500    partial core radius                                     
   POMASS =   30.974; ZVAL   =    5.000    mass and valenz                      
   RCORE  =    1.900    outmost cutoff radius                                   
   RWIGS  =    2.330; RWIGS  =    1.233    wigner-seitz radius (au A)           
   ENMAX  =  270.000; ENMIN  =  191.280 eV                                      
   ICORE  =        2    local potential                                         
   LCOR   =        T    correct aug charges                                     
   LPAW   =        T    paw PP                                                  
   EAUG   =  342.924                                                            
   DEXC   =    -.002                                                            
   RMAX   =    2.887    core radius for proj-oper                               
   RAUG   =    1.300    factor for augmentation sphere                          
   RDEP   =    1.931    radius for radial grids                                 
   QCUT   =   -4.330; QGAM   =    8.659    optimization parameters              
                                                                                
   Description                                                                  
     l     E      TYP  RCUT    TYP  RCUT                                        
     0   .000     23  1.900                                                     
     0   .000     23  1.900                                                     
     1   .000     23  1.900                                                     
     1   .000     23  1.900                                                     
     2   .000     23  1.900                                                     
  local pseudopotential read in
  partial core-charges read in
  atomic valenz-charges read in
  non local Contribution for L=           0  read in
    real space projection operators read in
  non local Contribution for L=           0  read in
    real space projection operators read in
  non local Contribution for L=           1  read in
    real space projection operators read in
  non local Contribution for L=           1  read in
    real space projection operators read in
    PAW grid and wavefunctions read in
 
   number of l-projection  operators is LMAX  =           4
   number of lm-projection operators is LMMAX =           8
 
 POTCAR:    PAW_PBE S 17Jan2003                   
   VRHFIN =S : s2p4                                                             
   LEXCH  = PE                                                                  
   EATOM  =   276.8230 eV,   20.3459 Ry                                         
                                                                                
   TITEL  = PAW_PBE S 17Jan2003                                                 
   LULTRA =        F    use ultrasoft PP ?                                      
   IUNSCR =        1    unscreen: 0-lin 1-nonlin 2-no                           
   RPACOR =    1.500    partial core radius                                     
   POMASS =   32.066; ZVAL   =    6.000    mass and valenz                      
   RCORE  =    1.900    outmost cutoff radius                                   
   RWIGS  =    2.200; RWIGS  =    1.164    wigner-seitz radius (au A)           
   ENMAX  =  280.000; ENMIN  =  194.016 eV                                      
   ICORE  =        2    local potential                                         
   LCOR   =        T    correct aug charges                                     
   LPAW   =        T    paw PP                                                  
   EAUG   =  335.092                                                            
   DEXC   =     .000                                                            
   RMAX   =    2.867    core radius for proj-oper                               
   RAUG   =    1.300    factor for augmentation sphere                          
   RDEP   =    1.954    radius for radial grids                                 
   QCUT   =   -4.360; QGAM   =    8.721    optimization parameters              
                                                                                
   Description                                                                  
     l     E      TYP  RCUT    TYP  RCUT                                        
     0   .000     23  1.900                                                     
     0   .000     23  1.900                                                     
     1   .000     23  1.900                                                     
     1   .000     23  1.900                                                     
     2   .000     23  1.900                                                     
  local pseudopotential read in
  partial core-charges read in
  atomic valenz-charges read in
  non local Contribution for L=           0  read in
    real space projection operators read in
  non local Contribution for L=           0  read in
    real space projection operators read in
  non local Contribution for L=           1  read in
    real space projection operators read in
  non local Contribution for L=           1  read in
    real space projection operators read in
    PAW grid and wavefunctions read in
 
   number of l-projection  operators is LMAX  =           4
   number of lm-projection operators is LMMAX =           8
 

 ----------------------------------------------------------------------------- 
|                                                                             |
|  ADVICE TO THIS USER RUNNING 'VASP/VAMP'   (HEAR YOUR MASTER'S VOICE ...):  |
|                                                                             |
|      You have a (more or less) 'large supercell' and for larger cells       |
|      it might be more efficient to use real space projection operators      |
|      So try LREAL= Auto  in the INCAR   file.                               |
|      Mind: If you want to do an extremely accurate calculations keep the    |
|      reciprocal projection scheme          (i.e. LREAL=.FALSE.)             |
|                                                                             |
 ----------------------------------------------------------------------------- 

 PAW_PBE I 08Apr2002                    :
 energy of atom  1       EATOM= -315.8678
 kinetic energy error for atom=    0.0014 (will be added to EATOM!!)
  PAW_PBE P 17Jan2003                   :
 energy of atom  2       EATOM= -176.0430
 kinetic energy error for atom=    0.0023 (will be added to EATOM!!)
  PAW_PBE S 17Jan2003                   :
 energy of atom  3       EATOM= -276.8230
 kinetic energy error for atom=    0.0047 (will be added to EATOM!!)
 
 EXHCAR: internal setup
 exchange correlation table for  LEXCH =        8
   RHO(1)=    0.500       N(1)  =     2000
   RHO(2)=  100.500       N(2)  =     4000
 
 POSCAR: I2P4S3   [TRI,TRI1b,aP36] (STD_PRIM doi:
  positions in direct lattice
  No initial velocities read in
 


--------------------------------------------------------------------------------------------------------


 ion  position               nearest neighbor table
   1  0.409  0.942  0.903-   9 2.51
   2  0.591  0.058  0.097-  10 2.51
   3  0.110  0.295  0.804-  15 2.51
   4  0.890  0.705  0.196-  16 2.51
   5  0.255  0.856  0.694-  23 2.51
   6  0.745  0.144  0.306-  24 2.51
   7  0.919  0.564  0.599-  17 2.51
   8  0.081  0.436  0.401-  18 2.51
   9  0.614  0.722  0.950-  25 2.13  11 2.23   1 2.51
  10  0.386  0.278  0.050-  26 2.13  12 2.23   2 2.51
  11  0.582  0.527  0.882-  29 2.11  27 2.14   9 2.23
  12  0.418  0.473  0.118-  30 2.11  28 2.14  10 2.23
  13  0.946  0.706  0.842-  29 2.11  25 2.15  15 2.23
  14  0.054  0.294  0.158-  30 2.11  26 2.15  16 2.23
  15  0.021  0.461  0.894-  27 2.13  13 2.23   3 2.51
  16  0.979  0.539  0.106-  28 2.13  14 2.23   4 2.51
  17  0.717  0.370  0.550-  33 2.13  19 2.23   7 2.51
  18  0.283  0.630  0.450-  34 2.13  20 2.23   8 2.51
  19  0.499  0.388  0.619-  31 2.11  35 2.14  17 2.23
  20  0.501  0.612  0.381-  32 2.11  36 2.14  18 2.23
  21  0.676  0.019  0.656-  31 2.11  33 2.15  23 2.23
  22  0.324  0.981  0.344-  32 2.11  34 2.15  24 2.23
  23  0.446  0.956  0.603-  35 2.13  21 2.23   5 2.51
  24  0.554  0.044  0.397-  36 2.13  22 2.23   6 2.51
  25  0.862  0.820  0.925-   9 2.13  13 2.15
  26  0.138  0.180  0.075-  10 2.13  14 2.15
  27  0.775  0.359  0.922-  15 2.13  11 2.14
  28  0.225  0.641  0.078-  16 2.13  12 2.14
  29  0.713  0.642  0.803-  13 2.11  11 2.11
  30  0.287  0.358  0.197-  14 2.11  12 2.11
  31  0.595  0.243  0.697-  21 2.11  19 2.11
  32  0.405  0.757  0.303-  22 2.11  20 2.11
  33  0.814  0.118  0.574-  17 2.13  21 2.15
  34  0.186  0.882  0.426-  18 2.13  22 2.15
  35  0.347  0.205  0.576-  23 2.13  19 2.14
  36  0.653  0.795  0.424-  24 2.13  20 2.14
 
  LATTYP: Found a triclinic cell.
 ALAT       =    26.9947625612
 B/A-ratio  =     0.2875247189
 C/A-ratio  =     0.2895408717
 COS(alpha) =     0.0120043539
 COS(beta)  =     0.2346202811
 COS(gamma) =     0.5547374428
  
  Lattice vectors:
  
 A1 = ( -14.9750055525,  -6.1541969546,  21.6007470769)
 A2 = (  -7.7616615160,   0.0000000000,   0.0000000000)
 A3 = (  -0.0938270755,  -7.8155238971,   0.0000000000)
 Subroutine PRICEL returns:
 Original cell was already a primitive cell.
 

Analysis of symmetry for initial positions (statically):

 Routine SETGRP: Setting up the symmetry group for a 
 triclinic supercell.


 Subroutine GETGRP returns: Found  2 space group operations
 (whereof  2 operations were pure point group operations)
 out of a pool of  2 trial point group operations.


The static configuration has the point symmetry S_2 .

Analysis of symmetry for dynamics (positions and initial velocities):

 Subroutine DYNSYM returns: Found  2 space group operations
 (whereof  2 operations were pure point group operations)
 out of a pool of  2 trial space group operations
 (whereof  2 operations were pure point group operations)
 and found also     1 'primitive' translations


The dynamic configuration has the point symmetry S_2 .
 
 
 KPOINTS: KPOINTS File, automatically generated by

Automatic generation of k-mesh.
 
 Subroutine IBZKPT returns following result:
 ===========================================
 
 Found    182 irreducible k-points:
 
 Following reciprocal coordinates:
            Coordinates               Weight
  0.000000  0.000000  0.000000      1.000000
  0.090909  0.000000  0.000000      2.000000
  0.181818  0.000000  0.000000      2.000000
  0.272727  0.000000  0.000000      2.000000
  0.363636  0.000000  0.000000      2.000000
  0.454545  0.000000  0.000000      2.000000
  0.000000  0.090909  0.000000      2.000000
  0.090909  0.090909  0.000000      2.000000
  0.181818  0.090909  0.000000      2.000000
  0.272727  0.090909  0.000000      2.000000
  0.363636  0.090909  0.000000      2.000000
  0.454545  0.090909  0.000000      2.000000
 -0.454545  0.090909  0.000000      2.000000
 -0.363636  0.090909  0.000000      2.000000
 -0.272727  0.090909  0.000000      2.000000
 -0.181818  0.090909  0.000000      2.000000
 -0.090909  0.090909  0.000000      2.000000
  0.000000  0.181818  0.000000      2.000000
  0.090909  0.181818  0.000000      2.000000
  0.181818  0.181818  0.000000      2.000000
  0.272727  0.181818  0.000000      2.000000
  0.363636  0.181818  0.000000      2.000000
  0.454545  0.181818  0.000000      2.000000
 -0.454545  0.181818  0.000000      2.000000
 -0.363636  0.181818  0.000000      2.000000
 -0.272727  0.181818  0.000000      2.000000
 -0.181818  0.181818  0.000000      2.000000
 -0.090909  0.181818  0.000000      2.000000
  0.000000  0.272727  0.000000      2.000000
  0.090909  0.272727  0.000000      2.000000
  0.181818  0.272727  0.000000      2.000000
  0.272727  0.272727  0.000000      2.000000
  0.363636  0.272727  0.000000      2.000000
  0.454545  0.272727  0.000000      2.000000
 -0.454545  0.272727  0.000000      2.000000
 -0.363636  0.272727  0.000000      2.000000
 -0.272727  0.272727  0.000000      2.000000
 -0.181818  0.272727  0.000000      2.000000
 -0.090909  0.272727  0.000000      2.000000
  0.000000  0.363636  0.000000      2.000000
  0.090909  0.363636  0.000000      2.000000
  0.181818  0.363636  0.000000      2.000000
  0.272727  0.363636  0.000000      2.000000
  0.363636  0.363636  0.000000      2.000000
  0.454545  0.363636  0.000000      2.000000
 -0.454545  0.363636  0.000000      2.000000
 -0.363636  0.363636  0.000000      2.000000
 -0.272727  0.363636  0.000000      2.000000
 -0.181818  0.363636  0.000000      2.000000
 -0.090909  0.363636  0.000000      2.000000
  0.000000  0.454545  0.000000      2.000000
  0.090909  0.454545  0.000000      2.000000
  0.181818  0.454545  0.000000      2.000000
  0.272727  0.454545  0.000000      2.000000
  0.363636  0.454545  0.000000      2.000000
  0.454545  0.454545  0.000000      2.000000
 -0.454545  0.454545  0.000000      2.000000
 -0.363636  0.454545  0.000000      2.000000
 -0.272727  0.454545  0.000000      2.000000
 -0.181818  0.454545  0.000000      2.000000
 -0.090909  0.454545  0.000000      2.000000
  0.000000  0.000000  0.333333      2.000000
  0.090909  0.000000  0.333333      2.000000
  0.181818  0.000000  0.333333      2.000000
  0.272727  0.000000  0.333333      2.000000
  0.363636  0.000000  0.333333      2.000000
  0.454545  0.000000  0.333333      2.000000
 -0.454545  0.000000  0.333333      2.000000
 -0.363636  0.000000  0.333333      2.000000
 -0.272727  0.000000  0.333333      2.000000
 -0.181818  0.000000  0.333333      2.000000
 -0.090909  0.000000  0.333333      2.000000
  0.000000  0.090909  0.333333      2.000000
  0.090909  0.090909  0.333333      2.000000
  0.181818  0.090909  0.333333      2.000000
  0.272727  0.090909  0.333333      2.000000
  0.363636  0.090909  0.333333      2.000000
  0.454545  0.090909  0.333333      2.000000
 -0.454545  0.090909  0.333333      2.000000
 -0.363636  0.090909  0.333333      2.000000
 -0.272727  0.090909  0.333333      2.000000
 -0.181818  0.090909  0.333333      2.000000
 -0.090909  0.090909  0.333333      2.000000
  0.000000  0.181818  0.333333      2.000000
  0.090909  0.181818  0.333333      2.000000
  0.181818  0.181818  0.333333      2.000000
  0.272727  0.181818  0.333333      2.000000
  0.363636  0.181818  0.333333      2.000000
  0.454545  0.181818  0.333333      2.000000
 -0.454545  0.181818  0.333333      2.000000
 -0.363636  0.181818  0.333333      2.000000
 -0.272727  0.181818  0.333333      2.000000
 -0.181818  0.181818  0.333333      2.000000
 -0.090909  0.181818  0.333333      2.000000
  0.000000  0.272727  0.333333      2.000000
  0.090909  0.272727  0.333333      2.000000
  0.181818  0.272727  0.333333      2.000000
  0.272727  0.272727  0.333333      2.000000
  0.363636  0.272727  0.333333      2.000000
  0.454545  0.272727  0.333333      2.000000
 -0.454545  0.272727  0.333333      2.000000
 -0.363636  0.272727  0.333333      2.000000
 -0.272727  0.272727  0.333333      2.000000
 -0.181818  0.272727  0.333333      2.000000
 -0.090909  0.272727  0.333333      2.000000
  0.000000  0.363636  0.333333      2.000000
  0.090909  0.363636  0.333333      2.000000
  0.181818  0.363636  0.333333      2.000000
  0.272727  0.363636  0.333333      2.000000
  0.363636  0.363636  0.333333      2.000000
  0.454545  0.363636  0.333333      2.000000
 -0.454545  0.363636  0.333333      2.000000
 -0.363636  0.363636  0.333333      2.000000
 -0.272727  0.363636  0.333333      2.000000
 -0.181818  0.363636  0.333333      2.000000
 -0.090909  0.363636  0.333333      2.000000
  0.000000  0.454545  0.333333      2.000000
  0.090909  0.454545  0.333333      2.000000
  0.181818  0.454545  0.333333      2.000000
  0.272727  0.454545  0.333333      2.000000
  0.363636  0.454545  0.333333      2.000000
  0.454545  0.454545  0.333333      2.000000
 -0.454545  0.454545  0.333333      2.000000
 -0.363636  0.454545  0.333333      2.000000
 -0.272727  0.454545  0.333333      2.000000
 -0.181818  0.454545  0.333333      2.000000
 -0.090909  0.454545  0.333333      2.000000
  0.000000 -0.454545  0.333333      2.000000
  0.090909 -0.454545  0.333333      2.000000
  0.181818 -0.454545  0.333333      2.000000
  0.272727 -0.454545  0.333333      2.000000
  0.363636 -0.454545  0.333333      2.000000
  0.454545 -0.454545  0.333333      2.000000
 -0.454545 -0.454545  0.333333      2.000000
 -0.363636 -0.454545  0.333333      2.000000
 -0.272727 -0.454545  0.333333      2.000000
 -0.181818 -0.454545  0.333333      2.000000
 -0.090909 -0.454545  0.333333      2.000000
  0.000000 -0.363636  0.333333      2.000000
  0.090909 -0.363636  0.333333      2.000000
  0.181818 -0.363636  0.333333      2.000000
  0.272727 -0.363636  0.333333      2.000000
  0.363636 -0.363636  0.333333      2.000000
  0.454545 -0.363636  0.333333      2.000000
 -0.454545 -0.363636  0.333333      2.000000
 -0.363636 -0.363636  0.333333      2.000000
 -0.272727 -0.363636  0.333333      2.000000
 -0.181818 -0.363636  0.333333      2.000000
 -0.090909 -0.363636  0.333333      2.000000
  0.000000 -0.272727  0.333333      2.000000
  0.090909 -0.272727  0.333333      2.000000
  0.181818 -0.272727  0.333333      2.000000
  0.272727 -0.272727  0.333333      2.000000
  0.363636 -0.272727  0.333333      2.000000
  0.454545 -0.272727  0.333333      2.000000
 -0.454545 -0.272727  0.333333      2.000000
 -0.363636 -0.272727  0.333333      2.000000
 -0.272727 -0.272727  0.333333      2.000000
 -0.181818 -0.272727  0.333333      2.000000
 -0.090909 -0.272727  0.333333      2.000000
  0.000000 -0.181818  0.333333      2.000000
  0.090909 -0.181818  0.333333      2.000000
  0.181818 -0.181818  0.333333      2.000000
  0.272727 -0.181818  0.333333      2.000000
  0.363636 -0.181818  0.333333      2.000000
  0.454545 -0.181818  0.333333      2.000000
 -0.454545 -0.181818  0.333333      2.000000
 -0.363636 -0.181818  0.333333      2.000000
 -0.272727 -0.181818  0.333333      2.000000
 -0.181818 -0.181818  0.333333      2.000000
 -0.090909 -0.181818  0.333333      2.000000
  0.000000 -0.090909  0.333333      2.000000
  0.090909 -0.090909  0.333333      2.000000
  0.181818 -0.090909  0.333333      2.000000
  0.272727 -0.090909  0.333333      2.000000
  0.363636 -0.090909  0.333333      2.000000
  0.454545 -0.090909  0.333333      2.000000
 -0.454545 -0.090909  0.333333      2.000000
 -0.363636 -0.090909  0.333333      2.000000
 -0.272727 -0.090909  0.333333      2.000000
 -0.181818 -0.090909  0.333333      2.000000
 -0.090909 -0.090909  0.333333      2.000000
 
 Following cartesian coordinates:
            Coordinates               Weight
  0.000000  0.000000  0.000000      1.000000
  0.011713 -0.000141 -0.000337      2.000000
  0.023425 -0.000281 -0.000675      2.000000
  0.035138 -0.000422 -0.001012      2.000000
  0.046850 -0.000562 -0.001350      2.000000
  0.058563 -0.000703 -0.001687      2.000000
  0.000000  0.011632 -0.000895      2.000000
  0.011713  0.011491 -0.001232      2.000000
  0.023425  0.011351 -0.001569      2.000000
  0.035138  0.011210 -0.001907      2.000000
  0.046850  0.011069 -0.002244      2.000000
  0.058563  0.010929 -0.002581      2.000000
 -0.058563  0.012335  0.000792      2.000000
 -0.046850  0.012194  0.000455      2.000000
 -0.035138  0.012054  0.000118      2.000000
 -0.023425  0.011913 -0.000220      2.000000
 -0.011713  0.011772 -0.000557      2.000000
  0.000000  0.023264 -0.001789      2.000000
  0.011713  0.023123 -0.002127      2.000000
  0.023425  0.022982 -0.002464      2.000000
  0.035138  0.022842 -0.002801      2.000000
  0.046850  0.022701 -0.003139      2.000000
  0.058563  0.022561 -0.003476      2.000000
 -0.058563  0.023967 -0.000102      2.000000
 -0.046850  0.023826 -0.000440      2.000000
 -0.035138  0.023686 -0.000777      2.000000
 -0.023425  0.023545 -0.001114      2.000000
 -0.011713  0.023404 -0.001452      2.000000
  0.000000  0.034896 -0.002684      2.000000
  0.011713  0.034755 -0.003021      2.000000
  0.023425  0.034614 -0.003359      2.000000
  0.035138  0.034474 -0.003696      2.000000
  0.046850  0.034333 -0.004033      2.000000
  0.058563  0.034193 -0.004371      2.000000
 -0.058563  0.035599 -0.000997      2.000000
 -0.046850  0.035458 -0.001334      2.000000
 -0.035138  0.035317 -0.001672      2.000000
 -0.023425  0.035177 -0.002009      2.000000
 -0.011713  0.035036 -0.002346      2.000000
  0.000000  0.046527 -0.003578      2.000000
  0.011713  0.046387 -0.003916      2.000000
  0.023425  0.046246 -0.004253      2.000000
  0.035138  0.046106 -0.004591      2.000000
  0.046850  0.045965 -0.004928      2.000000
  0.058563  0.045824 -0.005265      2.000000
 -0.058563  0.047231 -0.001892      2.000000
 -0.046850  0.047090 -0.002229      2.000000
 -0.035138  0.046949 -0.002566      2.000000
 -0.023425  0.046809 -0.002904      2.000000
 -0.011713  0.046668 -0.003241      2.000000
  0.000000  0.058159 -0.004473      2.000000
  0.011713  0.058019 -0.004810      2.000000
  0.023425  0.057878 -0.005148      2.000000
  0.035138  0.057737 -0.005485      2.000000
  0.046850  0.057597 -0.005823      2.000000
  0.058563  0.057456 -0.006160      2.000000
 -0.058563  0.058862 -0.002786      2.000000
 -0.046850  0.058722 -0.003124      2.000000
 -0.035138  0.058581 -0.003461      2.000000
 -0.023425  0.058441 -0.003798      2.000000
 -0.011713  0.058300 -0.004136      2.000000
  0.000000  0.000000  0.015432      2.000000
  0.011713 -0.000141  0.015094      2.000000
  0.023425 -0.000281  0.014757      2.000000
  0.035138 -0.000422  0.014419      2.000000
  0.046850 -0.000562  0.014082      2.000000
  0.058563 -0.000703  0.013745      2.000000
 -0.058563  0.000703  0.017118      2.000000
 -0.046850  0.000562  0.016781      2.000000
 -0.035138  0.000422  0.016444      2.000000
 -0.023425  0.000281  0.016106      2.000000
 -0.011713  0.000141  0.015769      2.000000
  0.000000  0.011632  0.014537      2.000000
  0.011713  0.011491  0.014200      2.000000
  0.023425  0.011351  0.013862      2.000000
  0.035138  0.011210  0.013525      2.000000
  0.046850  0.011069  0.013187      2.000000
  0.058563  0.010929  0.012850      2.000000
 -0.058563  0.012335  0.016224      2.000000
 -0.046850  0.012194  0.015886      2.000000
 -0.035138  0.012054  0.015549      2.000000
 -0.023425  0.011913  0.015212      2.000000
 -0.011713  0.011772  0.014874      2.000000
  0.000000  0.023264  0.013642      2.000000
  0.011713  0.023123  0.013305      2.000000
  0.023425  0.022982  0.012968      2.000000
  0.035138  0.022842  0.012630      2.000000
  0.046850  0.022701  0.012293      2.000000
  0.058563  0.022561  0.011955      2.000000
 -0.058563  0.023967  0.015329      2.000000
 -0.046850  0.023826  0.014992      2.000000
 -0.035138  0.023686  0.014654      2.000000
 -0.023425  0.023545  0.014317      2.000000
 -0.011713  0.023404  0.013980      2.000000
  0.000000  0.034896  0.012748      2.000000
  0.011713  0.034755  0.012410      2.000000
  0.023425  0.034614  0.012073      2.000000
  0.035138  0.034474  0.011736      2.000000
  0.046850  0.034333  0.011398      2.000000
  0.058563  0.034193  0.011061      2.000000
 -0.058563  0.035599  0.014435      2.000000
 -0.046850  0.035458  0.014097      2.000000
 -0.035138  0.035317  0.013760      2.000000
 -0.023425  0.035177  0.013422      2.000000
 -0.011713  0.035036  0.013085      2.000000
  0.000000  0.046527  0.011853      2.000000
  0.011713  0.046387  0.011516      2.000000
  0.023425  0.046246  0.011178      2.000000
  0.035138  0.046106  0.010841      2.000000
  0.046850  0.045965  0.010504      2.000000
  0.058563  0.045824  0.010166      2.000000
 -0.058563  0.047231  0.013540      2.000000
 -0.046850  0.047090  0.013203      2.000000
 -0.035138  0.046949  0.012865      2.000000
 -0.023425  0.046809  0.012528      2.000000
 -0.011713  0.046668  0.012190      2.000000
  0.000000  0.058159  0.010958      2.000000
  0.011713  0.058019  0.010621      2.000000
  0.023425  0.057878  0.010284      2.000000
  0.035138  0.057737  0.009946      2.000000
  0.046850  0.057597  0.009609      2.000000
  0.058563  0.057456  0.009272      2.000000
 -0.058563  0.058862  0.012645      2.000000
 -0.046850  0.058722  0.012308      2.000000
 -0.035138  0.058581  0.011971      2.000000
 -0.023425  0.058441  0.011633      2.000000
 -0.011713  0.058300  0.011296      2.000000
  0.000000 -0.058159  0.019905      2.000000
  0.011713 -0.058300  0.019567      2.000000
  0.023425 -0.058441  0.019230      2.000000
  0.035138 -0.058581  0.018893      2.000000
  0.046850 -0.058722  0.018555      2.000000
  0.058563 -0.058862  0.018218      2.000000
 -0.058563 -0.057456  0.021592      2.000000
 -0.046850 -0.057597  0.021254      2.000000
 -0.035138 -0.057737  0.020917      2.000000
 -0.023425 -0.057878  0.020579      2.000000
 -0.011713 -0.058019  0.020242      2.000000
  0.000000 -0.046527  0.019010      2.000000
  0.011713 -0.046668  0.018673      2.000000
  0.023425 -0.046809  0.018335      2.000000
  0.035138 -0.046949  0.017998      2.000000
  0.046850 -0.047090  0.017661      2.000000
  0.058563 -0.047231  0.017323      2.000000
 -0.058563 -0.045824  0.020697      2.000000
 -0.046850 -0.045965  0.020360      2.000000
 -0.035138 -0.046106  0.020022      2.000000
 -0.023425 -0.046246  0.019685      2.000000
 -0.011713 -0.046387  0.019347      2.000000
  0.000000 -0.034896  0.018115      2.000000
  0.011713 -0.035036  0.017778      2.000000
  0.023425 -0.035177  0.017441      2.000000
  0.035138 -0.035317  0.017103      2.000000
  0.046850 -0.035458  0.016766      2.000000
  0.058563 -0.035599  0.016429      2.000000
 -0.058563 -0.034193  0.019802      2.000000
 -0.046850 -0.034333  0.019465      2.000000
 -0.035138 -0.034474  0.019128      2.000000
 -0.023425 -0.034614  0.018790      2.000000
 -0.011713 -0.034755  0.018453      2.000000
  0.000000 -0.023264  0.017221      2.000000
  0.011713 -0.023404  0.016883      2.000000
  0.023425 -0.023545  0.016546      2.000000
  0.035138 -0.023686  0.016209      2.000000
  0.046850 -0.023826  0.015871      2.000000
  0.058563 -0.023967  0.015534      2.000000
 -0.058563 -0.022561  0.018908      2.000000
 -0.046850 -0.022701  0.018570      2.000000
 -0.035138 -0.022842  0.018233      2.000000
 -0.023425 -0.022982  0.017896      2.000000
 -0.011713 -0.023123  0.017558      2.000000
  0.000000 -0.011632  0.016326      2.000000
  0.011713 -0.011772  0.015989      2.000000
  0.023425 -0.011913  0.015651      2.000000
  0.035138 -0.012054  0.015314      2.000000
  0.046850 -0.012194  0.014977      2.000000
  0.058563 -0.012335  0.014639      2.000000
 -0.058563 -0.010929  0.018013      2.000000
 -0.046850 -0.011069  0.017676      2.000000
 -0.035138 -0.011210  0.017338      2.000000
 -0.023425 -0.011351  0.017001      2.000000
 -0.011713 -0.011491  0.016664      2.000000
 
 TETIRR: Found   1086 inequivalent tetrahedra from     2178


--------------------------------------------------------------------------------------------------------




 Dimension of arrays:
   k-Points           NKPTS =    182   number of bands    NBANDS=    226
   number of dos      NEDOS =   5000   number of ions     NIONS =     36
   non local maximal  LDIM  =      5   non local SUM 2l+1 LMDIM =     13
   total plane-waves  NPLWV = 350000
   max r-space proj   IRMAX =      1   max aug-charges    IRDMAX=   4946
   dimension x,y,z NGX =    50 NGY =   50 NGZ =  140
   dimension x,y,z NGXF=    64 NGYF=   70 NGZF=  192
   support grid    NGXF=    64 NGYF=   70 NGZF=  192
   ions per type =               8  16  12
 NGX,Y,Z   is equivalent  to a cutoff of  10.71, 10.63, 10.74 a.u.
 NGXF,Y,Z  is equivalent  to a cutoff of  13.71, 14.89, 14.73 a.u.


 I would recommend the setting:
   dimension x,y,z NGX =    50 NGY =   50 NGZ =  140
 SYSTEM =  I2P4S3_ICSD_26485                       
 POSCAR =  I2P4S3   [TRI,TRI1b,aP36] (STD_PRIM doi:

 Startparameter for this run:
   NWRITE =      2    write-flag & timer
   PREC   = high      medium, high low
   ISTART =      0    job   : 0-new  1-cont  2-samecut
   ICHARG =      2    charge: 1-file 2-atom 10-const
   ISPIN  =      1    spin polarized calculation?
   LNONCOLLINEAR =      F non collinear calculations
   LSORBIT =      F    spin-orbit coupling
   INIWAV =      1    electr: 0-lowe 1-rand  2-diag
   LASPH  =      F    aspherical Exc in radial PAW
   METAGGA=      F    non-selfconsistent MetaGGA calc.

 Electronic Relaxation 1
   ENCUT  =  392.0 eV  28.81 Ry    5.37 a.u.  12.53 12.62 34.99*2*pi/ulx,y,z
   ENINI  =  392.0     initial cutoff
   ENAUG  =  370.1 eV  augmentation charge cutoff
   NELM   =    120;   NELMIN=  2; NELMDL=  0     # of ELM steps 
   EDIFF  = 0.1E-03   stopping-criterion for ELM
   LREAL  =      F    real-space projection
   LCOMPAT=      F    compatible to vasp.4.4
   LREAL_COMPAT= F    compatible to vasp.4.5.1-3
   GGA_COMPAT  = T    GGA compatible to vasp.4.4-vasp.4.6
   LMAXPAW     = -100 max onsite density
   LMAXMIX     =    2 max onsite mixed and CHGCAR
   VOSKOWN=      0    Vosko Wilk Nusair interpolation
   ROPT   =    0.00000   0.00000   0.00000
 Ionic relaxation
   EDIFFG = 0.1E-02   stopping-criterion for IOM
   NSW    =      0    number of steps for IOM
   NBLOCK =      1;   KBLOCK =      1    inner block; outer block 
   IBRION =     -1    ionic relax: 0-MD 1-quasi-New 2-CG
   NFREE  =      1    steps in history (QN), initial steepest desc. (CG)
   ISIF   =      2    stress and relaxation
   IWAVPR =     10    prediction:  0-non 1-charg 2-wave 3-comb
   ISYM   =      2    0-nonsym 1-usesym 2-fastsym
   LCORR  =      T    Harris-Foulkes like correction to forces

   POTIM  =   0.50    time-step for ionic-motion
   TEIN   =    0.0    initial temperature
   TEBEG  =    0.0;   TEEND  =   0.0 temperature during run
   SMASS  =  -3.00    Nose mass-parameter (am)
   estimated Nose-frequenzy (Omega)   =  0.10E-29 period in steps =****** mass=  -0.138E-26a.u.
   NPACO  =    256;   APACO  = 16.0  distance and # of slots for P.C.
   PSTRESS=    0.0 pullay stress

  Mass of Ions in am
   POMASS = 126.90 30.97 32.07
  Ionic Valenz
   ZVAL   =   7.00  5.00  6.00
  Atomic Wigner-Seitz radii
   RWIGS  =  -1.00 -1.00 -1.00
   NELECT =     208.0000    total number of electrons
   NUPDOWN=      -1.0000    fix difference up-down

 DOS related values:
   EMIN   = -30.00;   EMAX   = 45.00  energy-range for DOS
   ISMEAR =    -5;   SIGMA  =   0.05  broadening in eV -4-tet -1-fermi 0-gaus

 Electronic relaxation 2 (details)
   IALGO  =     38    algorithm
   LDIAG  =      T    sub-space diagonalisation
   IMIX   =      4    mixing-type and parameters
     AMIX     =   0.40;   BMIX     =  1.00
     AMIX_MAG =   1.60;   BMIX_MAG =  1.00
     AMIN     =   0.10
     WC   =   100.;   INIMIX=   1;  MIXPRE=   1

 Intra band minimization:
   WEIMIN = 0.0000     energy-eigenvalue tresh-hold
   EBREAK =  0.11E-06  absolut break condition
   DEPER  =   0.30     relativ break condition  

   TIME   =   0.10     timestep for ELM

  volume/ion in A,a.u.               =      36.40       245.63
  Fermi-wavevector in a.u.,eV,Ry     =   0.886412 10.690444  0.785725

 Second variation
   LSECVAR=     F    do a second variation
 
 Write flags
   LWAVE  =      F    write WAVECAR
   LCHARG =      T    write CHGCAR
   LVTOT  =      F    write LOCPOT, local potential
   LELF   =      F    write electronic localiz. function (ELF)
   LORBIT =     10    0 simple, 1 ext, 2 COOP (PROOUT)


 Dipole corrections
   IDIPOL =      0    1-x, 2-y, 3-z
   LDIPOL =      F    correct potential



--------------------------------------------------------------------------------------------------------


 Static calculation
 charge density will be updated during run
 non-spin polarized calculation
 Variant of blocked Davidson
 Davidson routine will perform the subspace rotation
 performe sub-space diagonalisation
    after iterative eigenvector-optimisation
 modified Broyden-mixing scheme, WC =      100.0
 initial mixing is a Kerker type mixing with AMIX =  0.4000 and BMIX =      1.0000
 Hartree-type preconditioning will be used
 using additional bands          122
 reciprocal scheme for non local part
 use partial core corrections
 calculate Harris-corrections to forces 
   (improved forces if not selfconsistent)
 use gradient corrections 
 use of overlap-Matrix (Vanderbilt PP)
 Fermi weights with tetrahedron method with Bloechl corrections


--------------------------------------------------------------------------------------------------------


  energy-cutoff  :      392.00
  volume of cell :     1310.33
      direct lattice vectors                 reciprocal lattice vectors
     7.761661516  0.000000000  0.000000000     0.128838393 -0.001546733 -0.003711133
     0.093827075  7.815523897  0.000000000     0.000000000  0.127950476 -0.009840751
     0.642144555  1.661326942 21.600747077     0.000000000  0.000000000  0.046294695

  length of vectors
     7.761661516  7.816087084 21.674054330     0.128901111  0.128328347  0.046294695


 
 k-points in units of 2pi/SCALE and weight: KPOINTS File, automatically generated by
   0.00000000  0.00000000  0.00000000       0.003
   0.01171258 -0.00014061 -0.00033738       0.006
   0.02342516 -0.00028122 -0.00067475       0.006
   0.03513774 -0.00042184 -0.00101213       0.006
   0.04685032 -0.00056245 -0.00134950       0.006
   0.05856291 -0.00070306 -0.00168688       0.006
   0.00000000  0.01163186 -0.00089461       0.006
   0.01171258  0.01149125 -0.00123199       0.006
   0.02342516  0.01135064 -0.00156937       0.006
   0.03513774  0.01121003 -0.00190674       0.006
   0.04685032  0.01106941 -0.00224412       0.006
   0.05856291  0.01092880 -0.00258149       0.006
  -0.05856291  0.01233492  0.00079226       0.006
  -0.04685032  0.01219431  0.00045489       0.006
  -0.03513774  0.01205370  0.00011751       0.006
  -0.02342516  0.01191309 -0.00021986       0.006
  -0.01171258  0.01177247 -0.00055724       0.006
   0.00000000  0.02326372 -0.00178923       0.006
   0.01171258  0.02312311 -0.00212660       0.006
   0.02342516  0.02298250 -0.00246398       0.006
   0.03513774  0.02284189 -0.00280135       0.006
   0.04685032  0.02270127 -0.00313873       0.006
   0.05856291  0.02256066 -0.00347611       0.006
  -0.05856291  0.02396678 -0.00010235       0.006
  -0.04685032  0.02382617 -0.00043972       0.006
  -0.03513774  0.02368556 -0.00077710       0.006
  -0.02342516  0.02354495 -0.00111448       0.006
  -0.01171258  0.02340433 -0.00145185       0.006
   0.00000000  0.03489558 -0.00268384       0.006
   0.01171258  0.03475497 -0.00302122       0.006
   0.02342516  0.03461436 -0.00335859       0.006
   0.03513774  0.03447375 -0.00369597       0.006
   0.04685032  0.03433314 -0.00403334       0.006
   0.05856291  0.03419252 -0.00437072       0.006
  -0.05856291  0.03559864 -0.00099696       0.006
  -0.04685032  0.03545803 -0.00133434       0.006
  -0.03513774  0.03531742 -0.00167171       0.006
  -0.02342516  0.03517681 -0.00200909       0.006
  -0.01171258  0.03503620 -0.00234647       0.006
   0.00000000  0.04652745 -0.00357845       0.006
   0.01171258  0.04638683 -0.00391583       0.006
   0.02342516  0.04624622 -0.00425321       0.006
   0.03513774  0.04610561 -0.00459058       0.006
   0.04685032  0.04596500 -0.00492796       0.006
   0.05856291  0.04582439 -0.00526533       0.006
  -0.05856291  0.04723051 -0.00189158       0.006
  -0.04685032  0.04708989 -0.00222895       0.006
  -0.03513774  0.04694928 -0.00256633       0.006
  -0.02342516  0.04680867 -0.00290370       0.006
  -0.01171258  0.04666806 -0.00324108       0.006
   0.00000000  0.05815931 -0.00447307       0.006
   0.01171258  0.05801870 -0.00481044       0.006
   0.02342516  0.05787808 -0.00514782       0.006
   0.03513774  0.05773747 -0.00548520       0.006
   0.04685032  0.05759686 -0.00582257       0.006
   0.05856291  0.05745625 -0.00615995       0.006
  -0.05856291  0.05886237 -0.00278619       0.006
  -0.04685032  0.05872176 -0.00312357       0.006
  -0.03513774  0.05858114 -0.00346094       0.006
  -0.02342516  0.05844053 -0.00379832       0.006
  -0.01171258  0.05829992 -0.00413569       0.006
   0.00000000  0.00000000  0.01543157       0.006
   0.01171258 -0.00014061  0.01509419       0.006
   0.02342516 -0.00028122  0.01475681       0.006
   0.03513774 -0.00042184  0.01441944       0.006
   0.04685032 -0.00056245  0.01408206       0.006
   0.05856291 -0.00070306  0.01374469       0.006
  -0.05856291  0.00070306  0.01711844       0.006
  -0.04685032  0.00056245  0.01678107       0.006
  -0.03513774  0.00042184  0.01644369       0.006
  -0.02342516  0.00028122  0.01610632       0.006
  -0.01171258  0.00014061  0.01576894       0.006
   0.00000000  0.01163186  0.01453695       0.006
   0.01171258  0.01149125  0.01419958       0.006
   0.02342516  0.01135064  0.01386220       0.006
   0.03513774  0.01121003  0.01352482       0.006
   0.04685032  0.01106941  0.01318745       0.006
   0.05856291  0.01092880  0.01285007       0.006
  -0.05856291  0.01233492  0.01622383       0.006
  -0.04685032  0.01219431  0.01588645       0.006
  -0.03513774  0.01205370  0.01554908       0.006
  -0.02342516  0.01191309  0.01521170       0.006
  -0.01171258  0.01177247  0.01487433       0.006
   0.00000000  0.02326372  0.01364234       0.006
   0.01171258  0.02312311  0.01330496       0.006
   0.02342516  0.02298250  0.01296759       0.006
   0.03513774  0.02284189  0.01263021       0.006
   0.04685032  0.02270127  0.01229283       0.006
   0.05856291  0.02256066  0.01195546       0.006
  -0.05856291  0.02396678  0.01532922       0.006
  -0.04685032  0.02382617  0.01499184       0.006
  -0.03513774  0.02368556  0.01465446       0.006
  -0.02342516  0.02354495  0.01431709       0.006
  -0.01171258  0.02340433  0.01397971       0.006
   0.00000000  0.03489558  0.01274772       0.006
   0.01171258  0.03475497  0.01241035       0.006
   0.02342516  0.03461436  0.01207297       0.006
   0.03513774  0.03447375  0.01173560       0.006
   0.04685032  0.03433314  0.01139822       0.006
   0.05856291  0.03419252  0.01106085       0.006
  -0.05856291  0.03559864  0.01443460       0.006
  -0.04685032  0.03545803  0.01409723       0.006
  -0.03513774  0.03531742  0.01375985       0.006
  -0.02342516  0.03517681  0.01342248       0.006
  -0.01171258  0.03503620  0.01308510       0.006
   0.00000000  0.04652745  0.01185311       0.006
   0.01171258  0.04638683  0.01151573       0.006
   0.02342516  0.04624622  0.01117836       0.006
   0.03513774  0.04610561  0.01084098       0.006
   0.04685032  0.04596500  0.01050361       0.006
   0.05856291  0.04582439  0.01016623       0.006
  -0.05856291  0.04723051  0.01353999       0.006
  -0.04685032  0.04708989  0.01320261       0.006
  -0.03513774  0.04694928  0.01286524       0.006
  -0.02342516  0.04680867  0.01252786       0.006
  -0.01171258  0.04666806  0.01219049       0.006
   0.00000000  0.05815931  0.01095850       0.006
   0.01171258  0.05801870  0.01062112       0.006
   0.02342516  0.05787808  0.01028374       0.006
   0.03513774  0.05773747  0.00994637       0.006
   0.04685032  0.05759686  0.00960899       0.006
   0.05856291  0.05745625  0.00927162       0.006
  -0.05856291  0.05886237  0.01264538       0.006
  -0.04685032  0.05872176  0.01230800       0.006
  -0.03513774  0.05858114  0.01197062       0.006
  -0.02342516  0.05844053  0.01163325       0.006
  -0.01171258  0.05829992  0.01129587       0.006
   0.00000000 -0.05815931  0.01990463       0.006
   0.01171258 -0.05829992  0.01956726       0.006
   0.02342516 -0.05844053  0.01922988       0.006
   0.03513774 -0.05858114  0.01889251       0.006
   0.04685032 -0.05872176  0.01855513       0.006
   0.05856291 -0.05886237  0.01821776       0.006
  -0.05856291 -0.05745625  0.02159151       0.006
  -0.04685032 -0.05759686  0.02125414       0.006
  -0.03513774 -0.05773747  0.02091676       0.006
  -0.02342516 -0.05787808  0.02057939       0.006
  -0.01171258 -0.05801870  0.02024201       0.006
   0.00000000 -0.04652745  0.01901002       0.006
   0.01171258 -0.04666806  0.01867264       0.006
   0.02342516 -0.04680867  0.01833527       0.006
   0.03513774 -0.04694928  0.01799789       0.006
   0.04685032 -0.04708989  0.01766052       0.006
   0.05856291 -0.04723051  0.01732314       0.006
  -0.05856291 -0.04582439  0.02069690       0.006
  -0.04685032 -0.04596500  0.02035952       0.006
  -0.03513774 -0.04610561  0.02002215       0.006
  -0.02342516 -0.04624622  0.01968477       0.006
  -0.01171258 -0.04638683  0.01934740       0.006
   0.00000000 -0.03489558  0.01811541       0.006
   0.01171258 -0.03503620  0.01777803       0.006
   0.02342516 -0.03517681  0.01744065       0.006
   0.03513774 -0.03531742  0.01710328       0.006
   0.04685032 -0.03545803  0.01676590       0.006
   0.05856291 -0.03559864  0.01642853       0.006
  -0.05856291 -0.03419252  0.01980228       0.006
  -0.04685032 -0.03433314  0.01946491       0.006
  -0.03513774 -0.03447375  0.01912753       0.006
  -0.02342516 -0.03461436  0.01879016       0.006
  -0.01171258 -0.03475497  0.01845278       0.006
   0.00000000 -0.02326372  0.01722079       0.006
   0.01171258 -0.02340433  0.01688342       0.006
   0.02342516 -0.02354495  0.01654604       0.006
   0.03513774 -0.02368556  0.01620867       0.006
   0.04685032 -0.02382617  0.01587129       0.006
   0.05856291 -0.02396678  0.01553391       0.006
  -0.05856291 -0.02256066  0.01890767       0.006
  -0.04685032 -0.02270127  0.01857030       0.006
  -0.03513774 -0.02284189  0.01823292       0.006
  -0.02342516 -0.02298250  0.01789554       0.006
  -0.01171258 -0.02312311  0.01755817       0.006
   0.00000000 -0.01163186  0.01632618       0.006
   0.01171258 -0.01177247  0.01598880       0.006
   0.02342516 -0.01191309  0.01565143       0.006
   0.03513774 -0.01205370  0.01531405       0.006
   0.04685032 -0.01219431  0.01497668       0.006
   0.05856291 -0.01233492  0.01463930       0.006
  -0.05856291 -0.01092880  0.01801306       0.006
  -0.04685032 -0.01106941  0.01767568       0.006
  -0.03513774 -0.01121003  0.01733831       0.006
  -0.02342516 -0.01135064  0.01700093       0.006
  -0.01171258 -0.01149125  0.01666355       0.006
 
 k-points in reciprocal lattice and weights: KPOINTS File, automatically generated by
   0.00000000  0.00000000  0.00000000       0.003
   0.09090909  0.00000000  0.00000000       0.006
   0.18181818  0.00000000  0.00000000       0.006
   0.27272727  0.00000000  0.00000000       0.006
   0.36363636  0.00000000  0.00000000       0.006
   0.45454545  0.00000000  0.00000000       0.006
   0.00000000  0.09090909  0.00000000       0.006
   0.09090909  0.09090909  0.00000000       0.006
   0.18181818  0.09090909  0.00000000       0.006
   0.27272727  0.09090909  0.00000000       0.006
   0.36363636  0.09090909  0.00000000       0.006
   0.45454545  0.09090909  0.00000000       0.006
  -0.45454545  0.09090909  0.00000000       0.006
  -0.36363636  0.09090909  0.00000000       0.006
  -0.27272727  0.09090909  0.00000000       0.006
  -0.18181818  0.09090909  0.00000000       0.006
  -0.09090909  0.09090909  0.00000000       0.006
   0.00000000  0.18181818  0.00000000       0.006
   0.09090909  0.18181818  0.00000000       0.006
   0.18181818  0.18181818  0.00000000       0.006
   0.27272727  0.18181818  0.00000000       0.006
   0.36363636  0.18181818  0.00000000       0.006
   0.45454545  0.18181818  0.00000000       0.006
  -0.45454545  0.18181818  0.00000000       0.006
  -0.36363636  0.18181818  0.00000000       0.006
  -0.27272727  0.18181818  0.00000000       0.006
  -0.18181818  0.18181818  0.00000000       0.006
  -0.09090909  0.18181818  0.00000000       0.006
   0.00000000  0.27272727  0.00000000       0.006
   0.09090909  0.27272727  0.00000000       0.006
   0.18181818  0.27272727  0.00000000       0.006
   0.27272727  0.27272727  0.00000000       0.006
   0.36363636  0.27272727  0.00000000       0.006
   0.45454545  0.27272727  0.00000000       0.006
  -0.45454545  0.27272727  0.00000000       0.006
  -0.36363636  0.27272727  0.00000000       0.006
  -0.27272727  0.27272727  0.00000000       0.006
  -0.18181818  0.27272727  0.00000000       0.006
  -0.09090909  0.27272727  0.00000000       0.006
   0.00000000  0.36363636  0.00000000       0.006
   0.09090909  0.36363636  0.00000000       0.006
   0.18181818  0.36363636  0.00000000       0.006
   0.27272727  0.36363636  0.00000000       0.006
   0.36363636  0.36363636  0.00000000       0.006
   0.45454545  0.36363636  0.00000000       0.006
  -0.45454545  0.36363636  0.00000000       0.006
  -0.36363636  0.36363636  0.00000000       0.006
  -0.27272727  0.36363636  0.00000000       0.006
  -0.18181818  0.36363636  0.00000000       0.006
  -0.09090909  0.36363636  0.00000000       0.006
   0.00000000  0.45454545  0.00000000       0.006
   0.09090909  0.45454545  0.00000000       0.006
   0.18181818  0.45454545  0.00000000       0.006
   0.27272727  0.45454545  0.00000000       0.006
   0.36363636  0.45454545  0.00000000       0.006
   0.45454545  0.45454545  0.00000000       0.006
  -0.45454545  0.45454545  0.00000000       0.006
  -0.36363636  0.45454545  0.00000000       0.006
  -0.27272727  0.45454545  0.00000000       0.006
  -0.18181818  0.45454545  0.00000000       0.006
  -0.09090909  0.45454545  0.00000000       0.006
   0.00000000  0.00000000  0.33333333       0.006
   0.09090909  0.00000000  0.33333333       0.006
   0.18181818  0.00000000  0.33333333       0.006
   0.27272727  0.00000000  0.33333333       0.006
   0.36363636  0.00000000  0.33333333       0.006
   0.45454545  0.00000000  0.33333333       0.006
  -0.45454545  0.00000000  0.33333333       0.006
  -0.36363636  0.00000000  0.33333333       0.006
  -0.27272727  0.00000000  0.33333333       0.006
  -0.18181818  0.00000000  0.33333333       0.006
  -0.09090909  0.00000000  0.33333333       0.006
   0.00000000  0.09090909  0.33333333       0.006
   0.09090909  0.09090909  0.33333333       0.006
   0.18181818  0.09090909  0.33333333       0.006
   0.27272727  0.09090909  0.33333333       0.006
   0.36363636  0.09090909  0.33333333       0.006
   0.45454545  0.09090909  0.33333333       0.006
  -0.45454545  0.09090909  0.33333333       0.006
  -0.36363636  0.09090909  0.33333333       0.006
  -0.27272727  0.09090909  0.33333333       0.006
  -0.18181818  0.09090909  0.33333333       0.006
  -0.09090909  0.09090909  0.33333333       0.006
   0.00000000  0.18181818  0.33333333       0.006
   0.09090909  0.18181818  0.33333333       0.006
   0.18181818  0.18181818  0.33333333       0.006
   0.27272727  0.18181818  0.33333333       0.006
   0.36363636  0.18181818  0.33333333       0.006
   0.45454545  0.18181818  0.33333333       0.006
  -0.45454545  0.18181818  0.33333333       0.006
  -0.36363636  0.18181818  0.33333333       0.006
  -0.27272727  0.18181818  0.33333333       0.006
  -0.18181818  0.18181818  0.33333333       0.006
  -0.09090909  0.18181818  0.33333333       0.006
   0.00000000  0.27272727  0.33333333       0.006
   0.09090909  0.27272727  0.33333333       0.006
   0.18181818  0.27272727  0.33333333       0.006
   0.27272727  0.27272727  0.33333333       0.006
   0.36363636  0.27272727  0.33333333       0.006
   0.45454545  0.27272727  0.33333333       0.006
  -0.45454545  0.27272727  0.33333333       0.006
  -0.36363636  0.27272727  0.33333333       0.006
  -0.27272727  0.27272727  0.33333333       0.006
  -0.18181818  0.27272727  0.33333333       0.006
  -0.09090909  0.27272727  0.33333333       0.006
   0.00000000  0.36363636  0.33333333       0.006
   0.09090909  0.36363636  0.33333333       0.006
   0.18181818  0.36363636  0.33333333       0.006
   0.27272727  0.36363636  0.33333333       0.006
   0.36363636  0.36363636  0.33333333       0.006
   0.45454545  0.36363636  0.33333333       0.006
  -0.45454545  0.36363636  0.33333333       0.006
  -0.36363636  0.36363636  0.33333333       0.006
  -0.27272727  0.36363636  0.33333333       0.006
  -0.18181818  0.36363636  0.33333333       0.006
  -0.09090909  0.36363636  0.33333333       0.006
   0.00000000  0.45454545  0.33333333       0.006
   0.09090909  0.45454545  0.33333333       0.006
   0.18181818  0.45454545  0.33333333       0.006
   0.27272727  0.45454545  0.33333333       0.006
   0.36363636  0.45454545  0.33333333       0.006
   0.45454545  0.45454545  0.33333333       0.006
  -0.45454545  0.45454545  0.33333333       0.006
  -0.36363636  0.45454545  0.33333333       0.006
  -0.27272727  0.45454545  0.33333333       0.006
  -0.18181818  0.45454545  0.33333333       0.006
  -0.09090909  0.45454545  0.33333333       0.006
   0.00000000 -0.45454545  0.33333333       0.006
   0.09090909 -0.45454545  0.33333333       0.006
   0.18181818 -0.45454545  0.33333333       0.006
   0.27272727 -0.45454545  0.33333333       0.006
   0.36363636 -0.45454545  0.33333333       0.006
   0.45454545 -0.45454545  0.33333333       0.006
  -0.45454545 -0.45454545  0.33333333       0.006
  -0.36363636 -0.45454545  0.33333333       0.006
  -0.27272727 -0.45454545  0.33333333       0.006
  -0.18181818 -0.45454545  0.33333333       0.006
  -0.09090909 -0.45454545  0.33333333       0.006
   0.00000000 -0.36363636  0.33333333       0.006
   0.09090909 -0.36363636  0.33333333       0.006
   0.18181818 -0.36363636  0.33333333       0.006
   0.27272727 -0.36363636  0.33333333       0.006
   0.36363636 -0.36363636  0.33333333       0.006
   0.45454545 -0.36363636  0.33333333       0.006
  -0.45454545 -0.36363636  0.33333333       0.006
  -0.36363636 -0.36363636  0.33333333       0.006
  -0.27272727 -0.36363636  0.33333333       0.006
  -0.18181818 -0.36363636  0.33333333       0.006
  -0.09090909 -0.36363636  0.33333333       0.006
   0.00000000 -0.27272727  0.33333333       0.006
   0.09090909 -0.27272727  0.33333333       0.006
   0.18181818 -0.27272727  0.33333333       0.006
   0.27272727 -0.27272727  0.33333333       0.006
   0.36363636 -0.27272727  0.33333333       0.006
   0.45454545 -0.27272727  0.33333333       0.006
  -0.45454545 -0.27272727  0.33333333       0.006
  -0.36363636 -0.27272727  0.33333333       0.006
  -0.27272727 -0.27272727  0.33333333       0.006
  -0.18181818 -0.27272727  0.33333333       0.006
  -0.09090909 -0.27272727  0.33333333       0.006
   0.00000000 -0.18181818  0.33333333       0.006
   0.09090909 -0.18181818  0.33333333       0.006
   0.18181818 -0.18181818  0.33333333       0.006
   0.27272727 -0.18181818  0.33333333       0.006
   0.36363636 -0.18181818  0.33333333       0.006
   0.45454545 -0.18181818  0.33333333       0.006
  -0.45454545 -0.18181818  0.33333333       0.006
  -0.36363636 -0.18181818  0.33333333       0.006
  -0.27272727 -0.18181818  0.33333333       0.006
  -0.18181818 -0.18181818  0.33333333       0.006
  -0.09090909 -0.18181818  0.33333333       0.006
   0.00000000 -0.09090909  0.33333333       0.006
   0.09090909 -0.09090909  0.33333333       0.006
   0.18181818 -0.09090909  0.33333333       0.006
   0.27272727 -0.09090909  0.33333333       0.006
   0.36363636 -0.09090909  0.33333333       0.006
   0.45454545 -0.09090909  0.33333333       0.006
  -0.45454545 -0.09090909  0.33333333       0.006
  -0.36363636 -0.09090909  0.33333333       0.006
  -0.27272727 -0.09090909  0.33333333       0.006
  -0.18181818 -0.09090909  0.33333333       0.006
  -0.09090909 -0.09090909  0.33333333       0.006
 
 position of ions in fractional coordinates (direct lattice) 
   0.40914144  0.94179148  0.90259491
   0.59085856  0.05820852  0.09740509
   0.11008080  0.29539650  0.80370401
   0.88991920  0.70460350  0.19629599
   0.25469115  0.85560295  0.69386065
   0.74530885  0.14439705  0.30613935
   0.91935524  0.56356570  0.59888461
   0.08064476  0.43643430  0.40111539
   0.61353748  0.72210519  0.95004512
   0.38646252  0.27789481  0.04995488
   0.58249309  0.52690303  0.88152469
   0.41750691  0.47309697  0.11847531
   0.94626953  0.70627838  0.84176421
   0.05373047  0.29372162  0.15823579
   0.02070112  0.46110743  0.89410138
   0.97929888  0.53889257  0.10589862
   0.71668378  0.36960445  0.55016155
   0.28331622  0.63039555  0.44983845
   0.49949243  0.38787915  0.61890271
   0.50050757  0.61212085  0.38109729
   0.67648771  0.01899244  0.65606499
   0.32351229  0.98100756  0.34393501
   0.44634086  0.95647899  0.60308921
   0.55365914  0.04352101  0.39691079
   0.86233891  0.82037974  0.92472169
   0.13766109  0.17962026  0.07527831
   0.77509099  0.35853723  0.92206463
   0.22490901  0.64146277  0.07793537
   0.71266922  0.64245095  0.80262235
   0.28733078  0.35754905  0.19737765
   0.59456565  0.24310665  0.69688091
   0.40543435  0.75689335  0.30311909
   0.81414976  0.11816887  0.57383475
   0.18585024  0.88183113  0.42616525
   0.34724232  0.20511106  0.57623914
   0.65275768  0.79488894  0.42376086
 
 position of ions in cartesian coordinates  (Angst):
   3.84357935  8.86009905 19.49672436
   4.65405380  0.61675179  2.10402272
   1.39822022  3.64389357 17.36060712
   7.09941293  5.83295727  4.24013996
   2.50266405  7.83971469 14.98790842
   5.99496909  1.63713615  6.61283866
   7.57317240  5.39950434 12.93635498
   0.92446075  4.07734650  8.66439209
   5.43988957  7.22196590 20.52168442
   3.05774357  2.25488494  1.07906266
   5.13661826  5.58252396 19.04159183
   3.36101489  3.89432688  2.55915525
   7.95142615  6.91838115 18.18273582
   0.54620699  2.55846969  3.41801125
   0.77808180  5.08919083 19.31325772
   7.71955135  4.38766001  2.28748936
   5.95061910  3.80265064 11.88390039
   2.54701405  5.67420019  9.71684669
   4.31070977  4.05967850 13.36876085
   4.18692338  5.41717234  8.23198623
   5.67373917  1.23837428 14.17149393
   2.82389397  8.23847656  7.42925315
   3.94136078  8.47731273 13.02717739
   4.55627237  0.99953811  8.57356968
   7.36396153  7.94796252 19.97467942
   1.13367162  1.52888832  1.62606765
   6.64173320  4.33400712 19.91728480
   1.85589995  5.14284372  1.68346228
   6.10717610  6.35450885 17.33724239
   2.39045704  3.12234199  4.26350468
   5.08512561  3.05775288 15.05314827
   3.41250754  6.41909796  6.54759880
   6.69872720  1.87687878 12.39525939
   1.79890595  7.59997206  9.20548769
   3.08445117  2.56037199 12.44719595
   5.41318198  6.91647885  9.15355113
 


--------------------------------------------------------------------------------------------------------


 k-point  1 :  0.00000.00000.0000  plane waves:  23121
 k-point  2 :  0.09090.00000.0000  plane waves:  23103
 k-point  3 :  0.18180.00000.0000  plane waves:  23110
 k-point  4 :  0.27270.00000.0000  plane waves:  23113
 k-point  5 :  0.36360.00000.0000  plane waves:  23112
 k-point  6 :  0.45450.00000.0000  plane waves:  23086
 k-point  7 :  0.00000.09090.0000  plane waves:  23121
 k-point  8 :  0.09090.09090.0000  plane waves:  23115
 k-point  9 :  0.18180.09090.0000  plane waves:  23111
 k-point 10 :  0.27270.09090.0000  plane waves:  23112
 k-point 11 :  0.36360.09090.0000  plane waves:  23094
 k-point 12 :  0.45450.09090.0000  plane waves:  23076
 k-point 13 :  -.45450.09090.0000  plane waves:  23068
 k-point 14 :  -.36360.09090.0000  plane waves:  23104
 k-point 15 :  -.27270.09090.0000  plane waves:  23103
 k-point 16 :  -.18180.09090.0000  plane waves:  23109
 k-point 17 :  -.09090.09090.0000  plane waves:  23121
 k-point 18 :  0.00000.18180.0000  plane waves:  23114
 k-point 19 :  0.09090.18180.0000  plane waves:  23129
 k-point 20 :  0.18180.18180.0000  plane waves:  23113
 k-point 21 :  0.27270.18180.0000  plane waves:  23107
 k-point 22 :  0.36360.18180.0000  plane waves:  23084
 k-point 23 :  0.45450.18180.0000  plane waves:  23053
 k-point 24 :  -.45450.18180.0000  plane waves:  23062
 k-point 25 :  -.36360.18180.0000  plane waves:  23083
 k-point 26 :  -.27270.18180.0000  plane waves:  23080
 k-point 27 :  -.18180.18180.0000  plane waves:  23092
 k-point 28 :  -.09090.18180.0000  plane waves:  23100
 k-point 29 :  0.00000.27270.0000  plane waves:  23109
 k-point 30 :  0.09090.27270.0000  plane waves:  23121
 k-point 31 :  0.18180.27270.0000  plane waves:  23099
 k-point 32 :  0.27270.27270.0000  plane waves:  23088
 k-point 33 :  0.36360.27270.0000  plane waves:  23090
 k-point 34 :  0.45450.27270.0000  plane waves:  23051
 k-point 35 :  -.45450.27270.0000  plane waves:  23055
 k-point 36 :  -.36360.27270.0000  plane waves:  23056
 k-point 37 :  -.27270.27270.0000  plane waves:  23070
 k-point 38 :  -.18180.27270.0000  plane waves:  23096
 k-point 39 :  -.09090.27270.0000  plane waves:  23107
 k-point 40 :  0.00000.36360.0000  plane waves:  23113
 k-point 41 :  0.09090.36360.0000  plane waves:  23104
 k-point 42 :  0.18180.36360.0000  plane waves:  23099
 k-point 43 :  0.27270.36360.0000  plane waves:  23083
 k-point 44 :  0.36360.36360.0000  plane waves:  23096
 k-point 45 :  0.45450.36360.0000  plane waves:  23077
 k-point 46 :  -.45450.36360.0000  plane waves:  23046
 k-point 47 :  -.36360.36360.0000  plane waves:  23034
 k-point 48 :  -.27270.36360.0000  plane waves:  23041
 k-point 49 :  -.18180.36360.0000  plane waves:  23077
 k-point 50 :  -.09090.36360.0000  plane waves:  23089
 k-point 51 :  0.00000.45450.0000  plane waves:  23105
 k-point 52 :  0.09090.45450.0000  plane waves:  23102
 k-point 53 :  0.18180.45450.0000  plane waves:  23087
 k-point 54 :  0.27270.45450.0000  plane waves:  23081
 k-point 55 :  0.36360.45450.0000  plane waves:  23073
 k-point 56 :  0.45450.45450.0000  plane waves:  23063
 k-point 57 :  -.45450.45450.0000  plane waves:  23060
 k-point 58 :  -.36360.45450.0000  plane waves:  23047
 k-point 59 :  -.27270.45450.0000  plane waves:  23074
 k-point 60 :  -.18180.45450.0000  plane waves:  23086
 k-point 61 :  -.09090.45450.0000  plane waves:  23099
 k-point 62 :  0.00000.00000.3333  plane waves:  23103
 k-point 63 :  0.09090.00000.3333  plane waves:  23117
 k-point 64 :  0.18180.00000.3333  plane waves:  23102
 k-point 65 :  0.27270.00000.3333  plane waves:  23115
 k-point 66 :  0.36360.00000.3333  plane waves:  23102
 k-point 67 :  0.45450.00000.3333  plane waves:  23088
 k-point 68 :  -.45450.00000.3333  plane waves:  23096
 k-point 69 :  -.36360.00000.3333  plane waves:  23093
 k-point 70 :  -.27270.00000.3333  plane waves:  23126
 k-point 71 :  -.18180.00000.3333  plane waves:  23132
 k-point 72 :  -.09090.00000.3333  plane waves:  23111
 k-point 73 :  0.00000.09090.3333  plane waves:  23108
 k-point 74 :  0.09090.09090.3333  plane waves:  23104
 k-point 75 :  0.18180.09090.3333  plane waves:  23099
 k-point 76 :  0.27270.09090.3333  plane waves:  23125
 k-point 77 :  0.36360.09090.3333  plane waves:  23092
 k-point 78 :  0.45450.09090.3333  plane waves:  23096
 k-point 79 :  -.45450.09090.3333  plane waves:  23063
 k-point 80 :  -.36360.09090.3333  plane waves:  23103
 k-point 81 :  -.27270.09090.3333  plane waves:  23118
 k-point 82 :  -.18180.09090.3333  plane waves:  23141
 k-point 83 :  -.09090.09090.3333  plane waves:  23113
 k-point 84 :  0.00000.18180.3333  plane waves:  23129
 k-point 85 :  0.09090.18180.3333  plane waves:  23126
 k-point 86 :  0.18180.18180.3333  plane waves:  23120
 k-point 87 :  0.27270.18180.3333  plane waves:  23114
 k-point 88 :  0.36360.18180.3333  plane waves:  23091
 k-point 89 :  0.45450.18180.3333  plane waves:  23083
 k-point 90 :  -.45450.18180.3333  plane waves:  23069
 k-point 91 :  -.36360.18180.3333  plane waves:  23081
 k-point 92 :  -.27270.18180.3333  plane waves:  23109
 k-point 93 :  -.18180.18180.3333  plane waves:  23121
 k-point 94 :  -.09090.18180.3333  plane waves:  23120
 k-point 95 :  0.00000.27270.3333  plane waves:  23123
 k-point 96 :  0.09090.27270.3333  plane waves:  23115
 k-point 97 :  0.18180.27270.3333  plane waves:  23103
 k-point 98 :  0.27270.27270.3333  plane waves:  23111
 k-point 99 :  0.36360.27270.3333  plane waves:  23098
 k-point ** :  0.45450.27270.3333  plane waves:  23081
 k-point ** :  -.45450.27270.3333  plane waves:  23061
 k-point ** :  -.36360.27270.3333  plane waves:  23065
 k-point ** :  -.27270.27270.3333  plane waves:  23099
 k-point ** :  -.18180.27270.3333  plane waves:  23094
 k-point ** :  -.09090.27270.3333  plane waves:  23096
 k-point ** :  0.00000.36360.3333  plane waves:  23093
 k-point ** :  0.09090.36360.3333  plane waves:  23137
 k-point ** :  0.18180.36360.3333  plane waves:  23104
 k-point ** :  0.27270.36360.3333  plane waves:  23076
 k-point ** :  0.36360.36360.3333  plane waves:  23100
 k-point ** :  0.45450.36360.3333  plane waves:  23074
 k-point ** :  -.45450.36360.3333  plane waves:  23058
 k-point ** :  -.36360.36360.3333  plane waves:  23050
 k-point ** :  -.27270.36360.3333  plane waves:  23068
 k-point ** :  -.18180.36360.3333  plane waves:  23082
 k-point ** :  -.09090.36360.3333  plane waves:  23084
 k-point ** :  0.00000.45450.3333  plane waves:  23099
 k-point ** :  0.09090.45450.3333  plane waves:  23111
 k-point ** :  0.18180.45450.3333  plane waves:  23081
 k-point ** :  0.27270.45450.3333  plane waves:  23077
 k-point ** :  0.36360.45450.3333  plane waves:  23072
 k-point ** :  0.45450.45450.3333  plane waves:  23054
 k-point ** :  -.45450.45450.3333  plane waves:  23062
 k-point ** :  -.36360.45450.3333  plane waves:  23070
 k-point ** :  -.27270.45450.3333  plane waves:  23077
 k-point ** :  -.18180.45450.3333  plane waves:  23077
 k-point ** :  -.09090.45450.3333  plane waves:  23094
 k-point ** :  0.0000-.45450.3333  plane waves:  23122
 k-point ** :  0.0909-.45450.3333  plane waves:  23112
 k-point ** :  0.1818-.45450.3333  plane waves:  23079
 k-point ** :  0.2727-.45450.3333  plane waves:  23075
 k-point ** :  0.3636-.45450.3333  plane waves:  23054
 k-point ** :  0.4545-.45450.3333  plane waves:  23041
 k-point ** :  -.4545-.45450.3333  plane waves:  23062
 k-point ** :  -.3636-.45450.3333  plane waves:  23062
 k-point ** :  -.2727-.45450.3333  plane waves:  23076
 k-point ** :  -.1818-.45450.3333  plane waves:  23096
 k-point ** :  -.0909-.45450.3333  plane waves:  23097
 k-point ** :  0.0000-.36360.3333  plane waves:  23103
 k-point ** :  0.0909-.36360.3333  plane waves:  23098
 k-point ** :  0.1818-.36360.3333  plane waves:  23095
 k-point ** :  0.2727-.36360.3333  plane waves:  23060
 k-point ** :  0.3636-.36360.3333  plane waves:  23036
 k-point ** :  0.4545-.36360.3333  plane waves:  23032
 k-point ** :  -.4545-.36360.3333  plane waves:  23053
 k-point ** :  -.3636-.36360.3333  plane waves:  23094
 k-point ** :  -.2727-.36360.3333  plane waves:  23093
 k-point ** :  -.1818-.36360.3333  plane waves:  23120
 k-point ** :  -.0909-.36360.3333  plane waves:  23102
 k-point ** :  0.0000-.27270.3333  plane waves:  23102
 k-point ** :  0.0909-.27270.3333  plane waves:  23094
 k-point ** :  0.1818-.27270.3333  plane waves:  23084
 k-point ** :  0.2727-.27270.3333  plane waves:  23102
 k-point ** :  0.3636-.27270.3333  plane waves:  23074
 k-point ** :  0.4545-.27270.3333  plane waves:  23033
 k-point ** :  -.4545-.27270.3333  plane waves:  23068
 k-point ** :  -.3636-.27270.3333  plane waves:  23101
 k-point ** :  -.2727-.27270.3333  plane waves:  23109
 k-point ** :  -.1818-.27270.3333  plane waves:  23101
 k-point ** :  -.0909-.27270.3333  plane waves:  23115
 k-point ** :  0.0000-.18180.3333  plane waves:  23110
 k-point ** :  0.0909-.18180.3333  plane waves:  23092
 k-point ** :  0.1818-.18180.3333  plane waves:  23109
 k-point ** :  0.2727-.18180.3333  plane waves:  23103
 k-point ** :  0.3636-.18180.3333  plane waves:  23091
 k-point ** :  0.4545-.18180.3333  plane waves:  23067
 k-point ** :  -.4545-.18180.3333  plane waves:  23069
 k-point ** :  -.3636-.18180.3333  plane waves:  23098
 k-point ** :  -.2727-.18180.3333  plane waves:  23121
 k-point ** :  -.1818-.18180.3333  plane waves:  23129
 k-point ** :  -.0909-.18180.3333  plane waves:  23122
 k-point ** :  0.0000-.09090.3333  plane waves:  23106
 k-point ** :  0.0909-.09090.3333  plane waves:  23120
 k-point ** :  0.1818-.09090.3333  plane waves:  23116
 k-point ** :  0.2727-.09090.3333  plane waves:  23088
 k-point ** :  0.3636-.09090.3333  plane waves:  23103
 k-point ** :  0.4545-.09090.3333  plane waves:  23100
 k-point ** :  -.4545-.09090.3333  plane waves:  23069
 k-point ** :  -.3636-.09090.3333  plane waves:  23100
 k-point ** :  -.2727-.09090.3333  plane waves:  23135
 k-point ** :  -.1818-.09090.3333  plane waves:  23121
 k-point ** :  -.0909-.09090.3333  plane waves:  23102

 maximum and minimum number of plane-waves per node :   1479  1416

 maximum number of plane-waves:  23141
 maximal index in each direction: 
   IXMAX= 12   IYMAX= 13   IZMAX= 34
   IXMIN=-12   IYMIN=-13   IZMIN=-35

 NGX is ok and might be reduce to  50
 WARNING: wrap around error must be expected set NGY to  54
 NGZ is ok and might be reduce to 140

 parallel 3dFFT wavefunction:
    minimum data exchange during FFTs selected (reduces bandwidth)
 parallel 3dFFT charge:
    minimum data exchange during FFTs selected (reduces bandwidth)

 For storing wavefunctions ******* MBYTES are necessary
 For predicting wavefunctions  172.48 MBYTES are necessary
Broyden mixing: mesh for mixing (old mesh)
   NGX = 25   NGY = 25   NGZ = 69
  (NGX  = 64   NGY  = 70   NGZ  =192)
 gives a total of  43125 points
 initial charge density was supplied:
 charge density of overlapping atoms calculated
 number of electron  208.0000000 magnetization 
 keeping initial charge density in first step


--------------------------------------------------------------------------------------------------------


 Maximum index for augmentation-charges          253 (set IRDMAX)


--------------------------------------------------------------------------------------------------------


 First call to EWALD:  gamma=   0.162
 Maximum number of real-space cells 4x 4x 2
 Maximum number of reciprocal cells 2x 2x 5

    FEWALD:  VPU time    0.02: CPU time    0.02


----------------------------------------- Iteration    1(   1)  ---------------------------------------


    POTLOK:  VPU time    0.05: CPU time    0.11
    SETDIJ:  VPU time    0.01: CPU time    0.01
    EDDAV :  VPU time  754.74: CPU time  756.95
 BZINTS: Fermi energy:  8.030739;208.000000 electrons
         Band energy:  47.253056;  BLOECHL correction: -0.022674
    DOS   :  VPU time    0.00: CPU time   -0.00
    ------------------------------------------
      LOOP:  VPU time  756.92: CPU time  759.50

 eigenvalue-minimisations  : 82384
 total energy-change (2. order) : 0.9457132E+03  (-0.6329054E+04)
 number of electron  208.0000000 magnetization 
 augmentation part   208.0000000 magnetization 

 Free energy of the ion-electron system (eV)
  ---------------------------------------------------
  alpha Z        PSCENC =       122.99519091
  Ewald energy   TEWEN  =     -5781.07917367
  -1/2 Hartree   DENC   =     -2577.12640628
  -V(xc)+E(xc)   XCENC  =        89.16319195
  PAW double counting   =      3070.32729418    -2691.22133272
  entropy T*S    EENTRO =         0.00000000
  eigenvalues    EBANDS =        47.25305573
  atomic energy  EATOM  =      8665.40135318
  ---------------------------------------------------
  free energy    TOTEN  =       945.71317328 eV

  energy without entropy =      945.71317328  energy(sigma->0) =      945.71317328


--------------------------------------------------------------------------------------------------------




----------------------------------------- Iteration    1(   2)  ---------------------------------------


    EDDAV :  VPU time  907.65: CPU time  912.55
 BZINTS: Fermi energy:  1.251309;208.000000 electrons
         Band energy:-957.455234;  BLOECHL correction:  0.000000
    DOS   :  VPU time    0.00: CPU time   -0.00
    ------------------------------------------
      LOOP:  VPU time  909.08: CPU time  914.37

 eigenvalue-minimisations  :106184
 total energy-change (2. order) :-0.1004708E+04  (-0.9488790E+03)
 number of electron  208.0000000 magnetization 
 augmentation part   208.0000000 magnetization 

 Free energy of the ion-electron system (eV)
  ---------------------------------------------------
  alpha Z        PSCENC =       122.99519091
  Ewald energy   TEWEN  =     -5781.07917367
  -1/2 Hartree   DENC   =     -2577.12640628
  -V(xc)+E(xc)   XCENC  =        89.16319195
  PAW double counting   =      3070.32729418    -2691.22133272
  entropy T*S    EENTRO =         0.00000000
  eigenvalues    EBANDS =      -957.45523382
  atomic energy  EATOM  =      8665.40135318
  ---------------------------------------------------
  free energy    TOTEN  =       -58.99511627 eV

  energy without entropy =      -58.99511627  energy(sigma->0) =      -58.99511627


--------------------------------------------------------------------------------------------------------




----------------------------------------- Iteration    1(   3)  ---------------------------------------


    EDDAV :  VPU time  860.15: CPU time  862.49
 BZINTS: Fermi energy:  0.324815;208.000000 electrons
         Band energy:***********;  BLOECHL correction:  0.000000
    DOS   :  VPU time    0.00: CPU time   -0.00
    ------------------------------------------
      LOOP:  VPU time  861.35: CPU time  864.08

 eigenvalue-minimisations  :102136
 total energy-change (2. order) :-0.9434343E+02  (-0.9288834E+02)
 number of electron  208.0000000 magnetization 
 augmentation part   208.0000000 magnetization 

 Free energy of the ion-electron system (eV)
  ---------------------------------------------------
  alpha Z        PSCENC =       122.99519091
  Ewald energy   TEWEN  =     -5781.07917367
  -1/2 Hartree   DENC   =     -2577.12640628
  -V(xc)+E(xc)   XCENC  =        89.16319195
  PAW double counting   =      3070.32729418    -2691.22133272
  entropy T*S    EENTRO =         0.00000000
  eigenvalues    EBANDS =     -1051.79866642
  atomic energy  EATOM  =      8665.40135318
  ---------------------------------------------------
  free energy    TOTEN  =      -153.33854887 eV

  energy without entropy =     -153.33854887  energy(sigma->0) =     -153.33854887


--------------------------------------------------------------------------------------------------------




----------------------------------------- Iteration    1(   4)  ---------------------------------------


    EDDAV :  VPU time  889.56: CPU time  892.01
 BZINTS: Fermi energy:  0.309812;208.000000 electrons
         Band energy:***********;  BLOECHL correction:  0.000000
    DOS   :  VPU time   -0.00: CPU time   -0.00
    ------------------------------------------
      LOOP:  VPU time  890.78: CPU time  893.74

 eigenvalue-minimisations  :103160
 total energy-change (2. order) :-0.2126022E+01  (-0.2123970E+01)
 number of electron  208.0000000 magnetization 
 augmentation part   208.0000000 magnetization 

 Free energy of the ion-electron system (eV)
  ---------------------------------------------------
  alpha Z        PSCENC =       122.99519091
  Ewald energy   TEWEN  =     -5781.07917367
  -1/2 Hartree   DENC   =     -2577.12640628
  -V(xc)+E(xc)   XCENC  =        89.16319195
  PAW double counting   =      3070.32729418    -2691.22133272
  entropy T*S    EENTRO =         0.00000000
  eigenvalues    EBANDS =     -1053.92468860
  atomic energy  EATOM  =      8665.40135318
  ---------------------------------------------------
  free energy    TOTEN  =      -155.46457105 eV

  energy without entropy =     -155.46457105  energy(sigma->0) =     -155.46457105


--------------------------------------------------------------------------------------------------------




----------------------------------------- Iteration    1(   5)  ---------------------------------------


    EDDAV :  VPU time  941.53: CPU time  946.79
 BZINTS: Fermi energy:  0.309812;208.000000 electrons
         Band energy:***********;  BLOECHL correction:  0.000000
    DOS   :  VPU time    0.00: CPU time   -0.00
    CHARGE:  VPU time   20.57: CPU time   20.59
    MIXING:  VPU time    0.00: CPU time    0.00
    ------------------------------------------
      LOOP:  VPU time  963.31: CPU time  969.31

 eigenvalue-minimisations  :105104
 total energy-change (2. order) :-0.3836803E-01  (-0.3836243E-01)
 number of electron  208.0000131 magnetization 
 augmentation part   -32.3331139 magnetization 

 Broyden mixing:
  rms(total) = 0.10165E+01    rms(broyden)= 0.10163E+01
  rms(prec ) = 0.10877E+01
  weight for this iteration     100.00

 Free energy of the ion-electron system (eV)
  ---------------------------------------------------
  alpha Z        PSCENC =       122.99519091
  Ewald energy   TEWEN  =     -5781.07917367
  -1/2 Hartree   DENC   =     -2577.12640628
  -V(xc)+E(xc)   XCENC  =        89.16319195
  PAW double counting   =      3070.32729418    -2691.22133272
  entropy T*S    EENTRO =         0.00000000
  eigenvalues    EBANDS =     -1053.96305663
  atomic energy  EATOM  =      8665.40135318
  ---------------------------------------------------
  free energy    TOTEN  =      -155.50293908 eV

  energy without entropy =     -155.50293908  energy(sigma->0) =     -155.50293908


--------------------------------------------------------------------------------------------------------




----------------------------------------- Iteration    1(   6)  ---------------------------------------


    POTLOK:  VPU time    0.06: CPU time    0.10
    SETDIJ:  VPU time    0.01: CPU time    0.01
    EDDAV :  VPU time  921.05: CPU time  934.64
 BZINTS: Fermi energy:  0.433587;208.000000 electrons
         Band energy:***********;  BLOECHL correction:  0.000000
    DOS   :  VPU time    0.00: CPU time   -0.00
    CHARGE:  VPU time   21.22: CPU time   21.24
    MIXING:  VPU time    0.00: CPU time    0.00
    ------------------------------------------
      LOOP:  VPU time  943.50: CPU time  957.71

 eigenvalue-minimisations  : 96624
 total energy-change (2. order) : 0.1688359E+01  (-0.9276167E-01)
 number of electron  208.0000129 magnetization 
 augmentation part   -32.1649254 magnetization 

 Broyden mixing:
  rms(total) = 0.57779E+00    rms(broyden)= 0.57778E+00
  rms(prec ) = 0.61151E+00
  weight for this iteration     100.00

 eigenvalues of (default mixing * dielectric matrix)
  average eigenvalue GAMMA=   2.1352
  2.1352

 Free energy of the ion-electron system (eV)
  ---------------------------------------------------
  alpha Z        PSCENC =       122.99519091
  Ewald energy   TEWEN  =     -5781.07917367
  -1/2 Hartree   DENC   =     -2613.31346656
  -V(xc)+E(xc)   XCENC  =        92.24094872
  PAW double counting   =      3192.69409392    -2815.02656946
  entropy T*S    EENTRO =         0.00000000
  eigenvalues    EBANDS =     -1017.72695737
  atomic energy  EATOM  =      8665.40135318
  ---------------------------------------------------
  free energy    TOTEN  =      -153.81458033 eV

  energy without entropy =     -153.81458033  energy(sigma->0) =     -153.81458033


--------------------------------------------------------------------------------------------------------




----------------------------------------- Iteration    1(   7)  ---------------------------------------


    POTLOK:  VPU time    0.08: CPU time    0.08
    SETDIJ:  VPU time    0.04: CPU time    0.04
    EDDAV :  VPU time 1118.17: CPU time 1120.51
 BZINTS: Fermi energy:  0.594869;208.000000 electrons
         Band energy:-985.080544;  BLOECHL correction:  0.000000
    DOS   :  VPU time   -0.00: CPU time   -0.00
    CHARGE:  VPU time   21.64: CPU time   21.66
    MIXING:  VPU time    0.00: CPU time    0.00
    ------------------------------------------
      LOOP:  VPU time 1141.12: CPU time 1144.05

 eigenvalue-minimisations  : 99512
[...]
    172       8.4350      0.00000
    173       8.5133      0.00000
    174       8.5621      0.00000
    175       8.6530      0.00000
    176       8.7114      0.00000
    177       8.7392      0.00000
    178       8.8250      0.00000
    179       8.8839      0.00000
    180       8.8942      0.00000
    181       9.0277      0.00000
    182       9.0369      0.00000
    183       9.1377      0.00000
    184       9.2027      0.00000
    185       9.2380      0.00000
    186       9.2913      0.00000
    187       9.3591      0.00000
    188       9.3810      0.00000
    189       9.3985      0.00000
    190       9.4801      0.00000
    191       9.5800      0.00000
    192       9.6023      0.00000
    193       9.6357      0.00000
    194       9.6599      0.00000
    195       9.7103      0.00000
    196       9.8262      0.00000
    197       9.8819      0.00000
    198       9.9003      0.00000
    199       9.9882      0.00000
    200      10.0143      0.00000
    201      10.1279      0.00000
    202      10.1454      0.00000
    203      10.1869      0.00000
    204      10.2420      0.00000
    205      10.2755      0.00000
    206      10.3252      0.00000
    207      10.4060      0.00000
    208      10.4296      0.00000
    209      10.5320      0.00000
    210      10.5697      0.00000
    211      10.5970      0.00000
    212      10.6392      0.00000
    213      10.7488      0.00000
    214      10.8141      0.00000
    215      10.8537      0.00000
    216      10.8884      0.00000
    217      10.9161      0.00000
    218      11.0157      0.00000
    219      11.0536      0.00000
    220      11.1365      0.00000
    221      11.1937      0.00000
    222      11.2196      0.00000
    223      11.2826      0.00000
    224      11.3590      0.00000
    225      11.4313      0.00000
    226      11.6014      0.00000


--------------------------------------------------------------------------------------------------------


 soft charge-density along one line, spin component           1
         0         1         2         3         4         5         6         7         8         9
 total charge-density along one line
 
 pseudopotential strength for first ion, spin component:           1
 65.453  -0.018  -0.047   0.029   0.041  -0.000   0.000   0.000
 -0.018   0.025  -0.000   0.000   0.000   0.000  -0.000  -0.000
 -0.047  -0.000  16.919  -0.012  -0.019   0.000   0.000   0.000
  0.029   0.000  -0.012  16.903   0.013   0.000   0.000  -0.000
  0.041   0.000  -0.019   0.013  16.917   0.000  -0.000   0.000
 -0.000   0.000   0.000   0.000   0.000   0.015  -0.000  -0.000
  0.000  -0.000   0.000   0.000  -0.000  -0.000   0.015   0.000
  0.000  -0.000   0.000  -0.000   0.000  -0.000   0.000   0.015
 -0.028  -0.000   0.010   0.000  -0.011  -0.000   0.000   0.000
 -0.017  -0.000   0.007  -0.012   0.000  -0.000   0.000   0.000
 -0.013  -0.000   0.006   0.008  -0.005  -0.000   0.000   0.000
  0.019   0.000   0.000   0.010   0.007   0.000  -0.000  -0.000
 -0.001  -0.000   0.012  -0.000   0.010   0.000   0.000   0.000
 total augmentation occupancy for first ion, spin component:           1
  1.986   0.009   0.095  -0.058  -0.083  -0.014   0.010   0.016  -0.012  -0.005  -0.007   0.007  -0.001
  0.009   0.632  -0.360   0.219   0.307   0.312  -0.192  -0.304  -0.074  -0.051  -0.024   0.050  -0.002
  0.095  -0.360   1.622   0.148   0.244  -0.307   0.097   0.164   0.060   0.038   0.031  -0.021   0.030
 -0.058   0.219   0.148   1.812  -0.162   0.097  -0.165  -0.104  -0.024  -0.034   0.008   0.033   0.001
 -0.083   0.307   0.244  -0.162   1.637   0.164  -0.104  -0.289  -0.067  -0.019  -0.026   0.041   0.025
 -0.014   0.312  -0.307   0.097   0.164   0.227  -0.109  -0.176  -0.042  -0.027  -0.017   0.022  -0.009
  0.010  -0.192   0.097  -0.165  -0.104  -0.109   0.127   0.112   0.021   0.026  -0.001  -0.024   0.000
  0.016  -0.304   0.164  -0.104  -0.289  -0.176   0.112   0.217   0.042   0.023   0.016  -0.026  -0.007
 -0.012  -0.074   0.060  -0.024  -0.067  -0.042   0.021   0.042   0.012   0.006   0.005  -0.006   0.000
 -0.005  -0.051   0.038  -0.034  -0.019  -0.027   0.026   0.023   0.006   0.007   0.000  -0.006   0.001
 -0.007  -0.024   0.031   0.008  -0.026  -0.017  -0.001   0.016   0.005   0.000   0.004  -0.000   0.000
  0.007   0.050  -0.021   0.033   0.041   0.022  -0.024  -0.026  -0.006  -0.006  -0.000   0.007   0.001
 -0.001  -0.002   0.030   0.001   0.025  -0.009   0.000  -0.007   0.000   0.001   0.000   0.001   0.004


------------------------ aborting loop because EDIFF is reached ----------------------------------------


 


 total charge     
 
# of ion     s       p       d       tot
----------------------------------------
  1        1.521   2.730   0.021   4.272
  2        1.521   2.730   0.021   4.272
  3        1.520   2.733   0.020   4.273
  4        1.520   2.733   0.020   4.273
  5        1.520   2.733   0.020   4.272
  6        1.520   2.733   0.020   4.272
  7        1.520   2.732   0.021   4.273
  8        1.520   2.732   0.021   4.273
  9        1.112   1.288   0.000   2.401
 10        1.112   1.288   0.000   2.401
 11        1.091   1.332   0.000   2.423
 12        1.091   1.332   0.000   2.423
 13        1.090   1.332   0.000   2.423
 14        1.090   1.332   0.000   2.423
 15        1.114   1.285   0.000   2.399
 16        1.114   1.285   0.000   2.399
 17        1.113   1.288   0.000   2.400
 18        1.113   1.288   0.000   2.400
 19        1.091   1.333   0.000   2.424
 20        1.091   1.333   0.000   2.424
 21        1.092   1.330   0.000   2.422
 22        1.092   1.330   0.000   2.422
 23        1.114   1.285   0.000   2.399
 24        1.114   1.285   0.000   2.399
 25        1.363   2.328   0.000   3.691
 26        1.363   2.328   0.000   3.691
 27        1.363   2.328   0.000   3.691
 28        1.363   2.328   0.000   3.691
 29        1.363   2.335   0.000   3.698
 30        1.363   2.335   0.000   3.698
 31        1.363   2.335   0.000   3.698
 32        1.363   2.335   0.000   3.698
 33        1.363   2.328   0.000   3.691
 34        1.363   2.328   0.000   3.691
 35        1.363   2.329   0.000   3.692
 36        1.363   2.329   0.000   3.692
------------------------------------------------
tot       46.154  70.767   0.164 117.084
 


--------------------------------------------------------------------------------------------------------


    CHARGE:  VPU time   20.59: CPU time   20.61
    FORLOC:  VPU time    0.02: CPU time    0.02
    FORNL :  VPU time  192.34: CPU time  192.49
    STRESS:  VPU time  301.82: CPU time  304.31
    FORCOR:  VPU time    0.07: CPU time    0.07
    FORHAR:  VPU time    0.03: CPU time    0.03
    MIXING:  VPU time    0.00: CPU time    0.00


--------------------------------------------------------------------------------------------------------



  FREE ENERGIE OF THE ION-ELECTRON SYSTEM (eV)
  ---------------------------------------------------
  free  energy   TOTEN  =      -153.469808 eV

  energy  without entropy=     -153.469808  energy(sigma->0) =     -153.469808
 

  FORCE on cell =-STRESS in cart. coord.  units (eV/reduce length):
  Direction    X        Y        Z        XY       YZ       ZX
  --------------------------------------------------------------------------------------
  Alpha Z    123.00    123.00    123.00
  Ewald    -1743.43  -1705.88  -2331.80      2.70    -98.85   -252.13
  Hartree    979.60   1012.25    656.15      5.68    -44.17   -123.66
  E(xc)     -736.20   -736.16   -737.25     -0.03     -0.12     -0.65
  Local    -3178.16  -3247.34  -2291.16     -9.19    134.27    361.50
  n-local   2897.38   2897.14   2898.10      0.01     -2.11      2.48
  augment   -677.11   -676.87   -678.68     -0.10      0.37     -1.80
  Kinetic   2334.81   2333.74   2361.64      0.91     10.60     14.29
  -------------------------------------------------------------------------------------
  Total       -0.11     -0.13      0.01     -0.02     -0.01      0.03
  in kB       -0.14     -0.15      0.01     -0.03     -0.01      0.03
  external pressure =       -0.09 kB  Pullay stress =        0.00 kB


 VOLUME and BASIS-vectors are now :
 -----------------------------------------------------------------------------
  energy-cutoff  :      392.00
  volume of cell :     1310.33
      direct lattice vectors                 reciprocal lattice vectors
     7.761661516  0.000000000  0.000000000     0.128838393 -0.001546733 -0.003711133
     0.093827075  7.815523897  0.000000000     0.000000000  0.127950476 -0.009840751
     0.642144555  1.661326942 21.600747077     0.000000000  0.000000000  0.046294695

  length of vectors
     7.761661516  7.816087084 21.674054330     0.128901111  0.128328347  0.046294695


 FORCES acting on ions
    electron-ion (+dipol)            ewald-force                    non-local-force                 convergence-correction
 -----------------------------------------------------------------------------------------------
   0.615E+02 -.637E+02 0.324E+02   -.637E+02 0.663E+02 -.341E+02   0.221E+01 -.267E+01 0.169E+01   -.885E-03 -.410E-02 0.945E-03
   -.615E+02 0.637E+02 -.324E+02   0.637E+02 -.663E+02 0.341E+02   -.221E+01 0.267E+01 -.169E+01   0.885E-03 0.410E-02 -.945E-03
   -.378E+02 0.550E+02 0.647E+02   0.386E+02 -.573E+02 -.676E+02   -.868E+00 0.229E+01 0.291E+01   -.581E-03 0.300E-02 0.275E-02
   0.378E+02 -.550E+02 -.647E+02   -.386E+02 0.573E+02 0.676E+02   0.868E+00 -.229E+01 -.291E+01   0.581E-03 -.300E-02 -.275E-02
   0.578E+02 0.397E+02 -.657E+02   -.599E+02 -.406E+02 0.687E+02   0.215E+01 0.890E+00 -.295E+01   0.204E-02 -.977E-03 -.175E-02
   -.578E+02 -.397E+02 0.657E+02   0.599E+02 0.406E+02 -.687E+02   -.215E+01 -.890E+00 0.295E+01   -.204E-02 0.977E-03 0.175E-02
   -.647E+02 -.590E+02 -.359E+02   0.674E+02 0.612E+02 0.376E+02   -.268E+01 -.222E+01 -.167E+01   -.438E-02 0.290E-02 -.441E-03
   0.647E+02 0.590E+02 0.359E+02   -.674E+02 -.612E+02 -.376E+02   0.268E+01 0.222E+01 0.167E+01   0.438E-02 -.290E-02 0.441E-03
   0.488E+02 -.271E+02 -.887E+02   -.503E+02 0.223E+02 0.972E+02   0.148E+01 0.480E+01 -.847E+01   0.172E-03 -.438E-02 -.164E-02
   -.488E+02 0.271E+02 0.887E+02   0.503E+02 -.223E+02 -.972E+02   -.148E+01 -.480E+01 0.847E+01   -.172E-03 0.438E-02 0.164E-02
   0.126E+03 0.551E+02 0.219E+02   -.134E+03 -.569E+02 -.220E+02   0.823E+01 0.183E+01 0.152E+00   0.107E-02 0.238E-02 -.132E-02
   -.126E+03 -.551E+02 -.219E+02   0.134E+03 0.569E+02 0.220E+02   -.823E+01 -.183E+01 -.152E+00   -.107E-02 -.238E-02 0.132E-02
   -.996E+02 -.644E+02 0.857E+02   0.106E+03 0.665E+02 -.906E+02   -.636E+01 -.212E+01 0.489E+01   -.223E-02 -.162E-02 -.772E-03
   0.996E+02 0.644E+02 -.857E+02   -.106E+03 -.665E+02 0.906E+02   0.636E+01 0.212E+01 -.489E+01   0.223E-02 0.162E-02 0.772E-03
   -.104E+03 0.329E+02 -.264E+02   0.110E+03 -.292E+02 0.330E+02   -.652E+01 -.371E+01 -.664E+01   -.619E-04 0.247E-02 -.592E-03
   0.104E+03 -.329E+02 0.264E+02   -.110E+03 0.292E+02 -.330E+02   0.652E+01 0.371E+01 0.664E+01   0.619E-04 -.247E-02 0.592E-03
   -.251E+02 -.530E+02 0.885E+02   0.202E+02 0.546E+02 -.970E+02   0.486E+01 -.161E+01 0.844E+01   -.491E-02 -.236E-03 0.115E-02
   0.251E+02 0.530E+02 -.885E+02   -.202E+02 -.546E+02 0.970E+02   -.486E+01 0.161E+01 -.844E+01   0.491E-02 0.236E-03 -.115E-02
   0.589E+02 -.124E+03 -.269E+02   -.608E+02 0.133E+03 0.272E+02   0.188E+01 -.820E+01 -.295E+00   0.228E-02 -.790E-03 0.596E-03
   -.589E+02 0.124E+03 0.269E+02   0.608E+02 -.133E+03 -.272E+02   -.188E+01 0.820E+01 0.295E+00   -.228E-02 0.790E-03 -.596E-03
   -.656E+02 0.961E+02 -.860E+02   0.679E+02 -.103E+03 0.909E+02   -.232E+01 0.654E+01 -.488E+01   -.200E-02 0.309E-03 0.785E-03
   0.656E+02 -.961E+02 0.860E+02   -.679E+02 0.103E+03 -.909E+02   0.232E+01 -.654E+01 0.488E+01   0.200E-02 -.309E-03 -.785E-03
   0.326E+02 0.102E+03 0.245E+02   -.289E+02 -.109E+03 -.311E+02   -.368E+01 0.638E+01 0.664E+01   0.244E-02 -.513E-03 0.105E-02
   -.326E+02 -.102E+03 -.245E+02   0.289E+02 0.109E+03 0.311E+02   0.368E+01 -.638E+01 -.664E+01   -.244E-02 0.513E-03 -.105E-02
   -.752E+02 -.122E+03 -.608E+02   0.781E+02 0.126E+03 0.638E+02   -.298E+01 -.432E+01 -.300E+01   0.247E-02 -.239E-02 0.121E-03
   0.752E+02 0.122E+03 0.608E+02   -.781E+02 -.126E+03 -.638E+02   0.298E+01 0.432E+01 0.300E+01   -.247E-02 0.239E-02 -.121E-03
   0.159E+02 0.130E+03 -.625E+02   -.168E+02 -.135E+03 0.658E+02   0.835E+00 0.500E+01 -.332E+01   -.274E-03 0.371E-02 0.968E-03
   -.159E+02 -.130E+03 0.625E+02   0.168E+02 0.135E+03 -.658E+02   -.835E+00 -.500E+01 0.332E+01   0.274E-03 -.371E-02 -.968E-03
   0.511E+02 -.148E+02 0.160E+03   -.528E+02 0.152E+02 -.165E+03   0.169E+01 -.433E+00 0.490E+01   -.115E-02 0.102E-02 -.117E-02
   -.511E+02 0.148E+02 -.160E+03   0.528E+02 -.152E+02 0.165E+03   -.169E+01 0.433E+00 -.490E+01   0.115E-02 -.102E-02 0.117E-02
   -.977E+01 -.462E+02 -.170E+03   0.102E+02 0.478E+02 0.175E+03   -.415E+00 -.157E+01 -.492E+01   -.741E-03 -.590E-04 -.570E-03
   0.977E+01 0.462E+02 0.170E+03   -.102E+02 -.478E+02 -.175E+03   0.415E+00 0.157E+01 0.492E+01   0.741E-03 0.590E-04 0.570E-03
   -.122E+03 0.699E+02 0.594E+02   0.126E+03 -.727E+02 -.623E+02   -.440E+01 0.286E+01 0.299E+01   -.304E-02 -.336E-02 -.482E-03
   0.122E+03 -.699E+02 -.594E+02   -.126E+03 0.727E+02 0.623E+02   0.440E+01 -.286E+01 -.299E+01   0.304E-02 0.336E-02 0.482E-03
   0.129E+03 -.216E+02 0.597E+02   -.134E+03 0.224E+02 -.631E+02   0.495E+01 -.828E+00 0.336E+01   0.424E-02 -.959E-04 -.133E-02
   -.129E+03 0.216E+02 -.597E+02   0.134E+03 -.224E+02 0.631E+02   -.495E+01 0.828E+00 -.336E+01   -.424E-02 0.959E-04 0.133E-02
 -----------------------------------------------------------------------------------------------
   -.231E-12 -.998E-11 0.179E-11   0.000E+00 -.135E-12 0.135E-12   0.622E-14 -.266E-14 0.000E+00   0.338E-13 0.150E-14 0.152E-12
 
 
 POSITION                                       TOTAL-FORCE (eV/Angst)
 -----------------------------------------------------------------------------------
      3.84358      8.86010     19.49672         0.004714     -0.000358     -0.006158
      4.65405      0.61675      2.10402        -0.004714      0.000358      0.006158
      1.39822      3.64389     17.36061         0.004283     -0.010313      0.022313
      7.09941      5.83296      4.24014        -0.004283      0.010313     -0.022313
      2.50266      7.83971     14.98791        -0.006778      0.002254     -0.012917
      5.99497      1.63714      6.61284         0.006778     -0.002254      0.012917
      7.57317      5.39950     12.93635        -0.002380     -0.005019     -0.002890
      0.92446      4.07735      8.66439         0.002380      0.005019      0.002890
      5.43989      7.22197     20.52168         0.005144      0.009928     -0.021287
      3.05774      2.25488      1.07906        -0.005144     -0.009928      0.021287
      5.13662      5.58252     19.04159         0.017649      0.010733      0.003226
      3.36101      3.89433      2.55916        -0.017649     -0.010733     -0.003226
      7.95143      6.91838     18.18274        -0.013741     -0.010686     -0.001110
      0.54621      2.55847      3.41801         0.013741      0.010686      0.001110
      0.77808      5.08919     19.31326        -0.025077     -0.001866     -0.003067
      7.71955      4.38766      2.28749         0.025077      0.001866      0.003067
      5.95062      3.80265     11.88390         0.008856     -0.002047      0.020015
      2.54701      5.67420      9.71685        -0.008856      0.002047     -0.020015
      4.31071      4.05968     13.36876         0.003842     -0.018407      0.004004
      4.18692      5.41717      8.23199        -0.003842      0.018407     -0.004004
      5.67374      1.23837     14.17149        -0.012671      0.015411     -0.004600
      2.82389      8.23848      7.42925         0.012671     -0.015411      0.004600
      3.94136      8.47731     13.02718        -0.007118      0.025821      0.014028
      4.55627      0.99954      8.57357         0.007118     -0.025821     -0.014028
      7.36396      7.94796     19.97468        -0.006770     -0.009103     -0.019754
      1.13367      1.52889      1.62607         0.006770      0.009103      0.019754
      6.64173      4.33401     19.91728        -0.002995      0.014296     -0.005718
      1.85590      5.14284      1.68346         0.002995     -0.014296      0.005718
      6.10718      6.35451     17.33724         0.017451     -0.005145      0.018651
      2.39046      3.12234      4.26350        -0.017451      0.005145     -0.018651
      5.08513      3.05775     15.05315        -0.001161     -0.004872     -0.017756
      3.41251      6.41910      6.54760         0.001161      0.004872      0.017756
      6.69873      1.87688     12.39526        -0.010140      0.008228      0.013002
      1.79891      7.59997      9.20549         0.010140     -0.008228     -0.013002
      3.08445      2.56037     12.44720         0.010271      0.006502      0.006101
      5.41318      6.91648      9.15355        -0.010271     -0.006502     -0.006101
 -----------------------------------------------------------------------------------
    total drift:                               -0.000000     -0.000000      0.000000


--------------------------------------------------------------------------------------------------------



 mean value of Nose-termostat <S>:     1.000 mean value of <T> :     0.000
 mean temperature <T/S>/<1/S>  :     0.000

     LOOP+:  VPU time11437.55: CPU time11508.60
 


 total charge     
 
# of ion     s       p       d       tot
----------------------------------------
  1        1.521   2.730   0.021   4.272
  2        1.521   2.730   0.021   4.272
  3        1.520   2.733   0.020   4.273
  4        1.520   2.733   0.020   4.273
  5        1.520   2.733   0.020   4.272
  6        1.520   2.733   0.020   4.272
  7        1.520   2.732   0.021   4.273
  8        1.520   2.732   0.021   4.273
  9        1.112   1.288   0.000   2.401
 10        1.112   1.288   0.000   2.401
 11        1.091   1.332   0.000   2.423
 12        1.091   1.332   0.000   2.423
 13        1.090   1.332   0.000   2.423
 14        1.090   1.332   0.000   2.423
 15        1.114   1.285   0.000   2.399
 16        1.114   1.285   0.000   2.399
 17        1.113   1.288   0.000   2.400
 18        1.113   1.288   0.000   2.400
 19        1.091   1.333   0.000   2.424
 20        1.091   1.333   0.000   2.424
 21        1.092   1.330   0.000   2.422
 22        1.092   1.330   0.000   2.422
 23        1.114   1.285   0.000   2.399
 24        1.114   1.285   0.000   2.399
 25        1.363   2.328   0.000   3.691
 26        1.363   2.328   0.000   3.691
 27        1.363   2.328   0.000   3.691
 28        1.363   2.328   0.000   3.691
 29        1.363   2.335   0.000   3.698
 30        1.363   2.335   0.000   3.698
 31        1.363   2.335   0.000   3.698
 32        1.363   2.335   0.000   3.698
 33        1.363   2.328   0.000   3.691
 34        1.363   2.328   0.000   3.691
 35        1.363   2.329   0.000   3.692
 36        1.363   2.329   0.000   3.692
------------------------------------------------
tot       46.154  70.767   0.164 117.084
 
 BZINTS: Fermi energy:  0.598620;208.000000 electrons
         Band energy:-985.886849;  BLOECHL correction:  0.000000
  
  
 General timing and accounting informations for this job:
 ========================================================
  
                  Total CPU time used (sec):    11836.549
                            User time (sec):    11737.321
                          System time (sec):       99.228
                         Elapsed time (sec):    11925.788
  
                   Maximum memory used (kb):      662916.
                   Average memory used (kb):           0.
  
                          Minor page faults:        23671
                          Major page faults:            0
                 Voluntary context switches:         1667
