 vasp.4.6.35 3Apr08 complex 
 executed on             LinuxIFC date 2015.01.06  09:53:20
 running on   32 nodes
 distr:  one band on   16 nodes,    2 groups


--------------------------------------------------------------------------------------------------------


 INCAR:
 POTCAR:   PAW_PBE Ag 06Sep2000                   
 POTCAR:   PAW_PBE Ca_sv 06Sep2000                
 POTCAR:   PAW_PBE Ag 06Sep2000                   
   VRHFIN =Ag : s1 d10                                                          
   LEXCH  = PE                                                                  
   EATOM  =  1037.4134 eV,   76.2477 Ry                                         
                                                                                
   TITEL  = PAW_PBE Ag 06Sep2000                                                
   LULTRA =        F    use ultrasoft PP ?                                      
   IUNSCR =        1    unscreen: 0-lin 1-nonlin 2-no                           
   RPACOR =    2.000    partial core radius                                     
   POMASS =  107.868; ZVAL   =   11.000    mass and valenz                      
   RCORE  =    2.400    outmost cutoff radius                                   
   RWIGS  =    2.840; RWIGS  =    1.503    wigner-seitz radius (au A)           
   ENMAX  =  249.846; ENMIN  =  187.385 eV                                      
   RCLOC  =    1.962    cutoff for local pot                                    
   LCOR   =        T    correct aug charges                                     
   LPAW   =        T    paw PP                                                  
   EAUG   =  412.496                                                            
   DEXC   =    -.047                                                            
   RMAX   =    2.917    core radius for proj-oper                               
   RAUG   =    1.300    factor for augmentation sphere                          
   RDEP   =    2.416    radius for radial grids                                 
   QCUT   =   -4.285; QGAM   =    8.570    optimization parameters              
                                                                                
   Description                                                                  
     l     E      TYP  RCUT    TYP  RCUT                                        
     2   .000     23  2.400                                                     
     2   .000     23  2.400                                                     
     0   .000     23  2.400                                                     
     0   .000     23  2.400                                                     
     1  -.200     23  2.400                                                     
     1  1.500     23  2.400                                                     
     3   .000      7   .000                                                     
  local pseudopotential read in
  partial core-charges read in
  atomic valenz-charges read in
  non local Contribution for L=           2  read in
    real space projection operators read in
  non local Contribution for L=           2  read in
    real space projection operators read in
  non local Contribution for L=           0  read in
    real space projection operators read in
  non local Contribution for L=           0  read in
    real space projection operators read in
  non local Contribution for L=           1  read in
    real space projection operators read in
  non local Contribution for L=           1  read in
    real space projection operators read in
    PAW grid and wavefunctions read in
 
   number of l-projection  operators is LMAX  =           6
   number of lm-projection operators is LMMAX =          18
 
 POTCAR:   PAW_PBE Ca_sv 06Sep2000                
   VRHFIN =Ca: 3s3p4s                                                           
   LEXCH  = PE                                                                  
   EATOM  =  1005.7249 eV,   73.9187 Ry                                         
                                                                                
   TITEL  = PAW_PBE Ca_sv 06Sep2000                                             
   LULTRA =        F    use ultrasoft PP ?                                      
   IUNSCR =        1    unscreen: 0-lin 1-nonlin 2-no                           
   RPACOR =    2.000    partial core radius                                     
   POMASS =   40.078; ZVAL   =   10.000    mass and valenz                      
   RCORE  =    2.300    outmost cutoff radius                                   
   RWIGS  =    2.500; RWIGS  =    1.323    wigner-seitz radius (au A)           
   ENMAX  =  266.586; ENMIN  =  199.939 eV                                      
   RCLOC  =    1.808    cutoff for local pot                                    
   LCOR   =        T    correct aug charges                                     
   LPAW   =        T    paw PP                                                  
   EAUG   =  420.852                                                            
   DEXC   =     .000                                                            
   RMAX   =    2.824    core radius for proj-oper                               
   RAUG   =    1.300    factor for augmentation sphere                          
   RDEP   =    2.392    radius for radial grids                                 
   QCUT   =   -4.426; QGAM   =    8.853    optimization parameters              
                                                                                
   Description                                                                  
     l     E      TYP  RCUT    TYP  RCUT                                        
     0   .000     23  2.300                                                     
     0   .000     23  2.300                                                     
     1   .000     23  2.300                                                     
     1   .500     23  2.300                                                     
     2   .000     23  2.300                                                     
     2   .000     23  2.300                                                     
  local pseudopotential read in
  partial core-charges read in
  atomic valenz-charges read in
  non local Contribution for L=           0  read in
    real space projection operators read in
  non local Contribution for L=           0  read in
    real space projection operators read in
  non local Contribution for L=           1  read in
    real space projection operators read in
  non local Contribution for L=           1  read in
    real space projection operators read in
  non local Contribution for L=           2  read in
    real space projection operators read in
  non local Contribution for L=           2  read in
    real space projection operators read in
    PAW grid and wavefunctions read in
 
   number of l-projection  operators is LMAX  =           6
   number of lm-projection operators is LMMAX =          18
 

 ----------------------------------------------------------------------------- 
|                                                                             |
|  ADVICE TO THIS USER RUNNING 'VASP/VAMP'   (HEAR YOUR MASTER'S VOICE ...):  |
|                                                                             |
|      You have a (more or less) 'large supercell' and for larger cells       |
|      it might be more efficient to use real space projection operators      |
|      So try LREAL= Auto  in the INCAR   file.                               |
|      Mind: If you want to do an extremely accurate calculations keep the    |
|      reciprocal projection scheme          (i.e. LREAL=.FALSE.)             |
|                                                                             |
 ----------------------------------------------------------------------------- 

 PAW_PBE Ag 06Sep2000                   :
 energy of atom  1       EATOM=-1037.4134
 kinetic energy error for atom=    0.0162 (will be added to EATOM!!)
 PAW_PBE Ca_sv 06Sep2000                :
 energy of atom  2       EATOM=-1005.7249
 kinetic energy error for atom=    0.0080 (will be added to EATOM!!)
 
 EXHCAR: internal setup
 exchange correlation table for  LEXCH =        8
   RHO(1)=    0.500       N(1)  =     2000
   RHO(2)=  100.500       N(2)  =     4000
 
 POSCAR: Ag8Ca3   [BCC,BCC,cI44] (STD_PRIM doi:10
  positions in direct lattice
  No initial velocities read in
 


--------------------------------------------------------------------------------------------------------


 ion  position               nearest neighbor table
   1  0.000  0.500  0.000-  13 2.83  16 2.83   9 2.83  12 2.83   5 2.83   8 2.83
   2  0.500  0.500  0.500-   6 2.83   7 2.83  13 2.83  16 2.83  10 2.83  11 2.83
   3  0.500  0.000  0.000-   6 2.83   7 2.83   9 2.83  12 2.83  14 2.83  15 2.83
   4  0.000  0.000  0.500-  10 2.83  11 2.83   5 2.83   8 2.83  14 2.83  15 2.83
   5  0.000  0.658  0.342-   1 2.83   4 2.83  10 2.91  16 2.91  15 2.91  12 2.91  17 3.17  18 3.17
                             6 3.18   7 3.18
   6  0.684  0.342  0.342-   3 2.83   2 2.83  12 2.91  14 2.91  13 2.91  10 2.91  17 3.17  18 3.17
                             5 3.18   8 3.18
   7  0.316  0.658  0.658-   3 2.83   2 2.83   9 2.91  15 2.91  11 2.91  16 2.91  18 3.17  17 3.17
                             5 3.18   8 3.18
   8  0.000  0.342  0.658-   1 2.83   4 2.83  11 2.91  13 2.91  14 2.91   9 2.91  17 3.17  18 3.17
                             6 3.18   7 3.18
   9  0.342  0.658  0.000-   1 2.83   3 2.83   7 2.91  16 2.91  14 2.91   8 2.91  19 3.17  20 3.17
                            10 3.18  11 3.18
  10  0.658  0.658  0.316-   4 2.83   2 2.83   5 2.91  14 2.91   6 2.91  16 2.91  20 3.17  19 3.17
                             9 3.18  12 3.18
  11  0.342  0.342  0.684-   4 2.83   2 2.83   8 2.91  15 2.91  13 2.91   7 2.91  19 3.17  20 3.17
                             9 3.18  12 3.18
  12  0.658  0.342  0.000-   1 2.83   3 2.83   6 2.91  13 2.91   5 2.91  15 2.91  19 3.17  20 3.17
                            10 3.18  11 3.18
  13  0.658  0.316  0.658-   1 2.83   2 2.83   8 2.91  12 2.91  11 2.91   6 2.91  21 3.17  22 3.17
                            14 3.18  15 3.18
  14  0.658  0.000  0.342-   3 2.83   4 2.83   6 2.91  10 2.91   8 2.91   9 2.91  21 3.17  22 3.17
                            13 3.18  16 3.18
  15  0.342  0.000  0.658-   3 2.83   4 2.83   7 2.91  11 2.91   5 2.91  12 2.91  21 3.17  22 3.17
                            13 3.18  16 3.18
  16  0.342  0.684  0.342-   1 2.83   2 2.83   5 2.91   9 2.91   7 2.91  10 2.91  22 3.17  21 3.17
                            14 3.18  15 3.18
  17  0.000  0.277  0.277-   6 3.17   7 3.17   5 3.17   8 3.17
  18  0.000  0.723  0.723-   7 3.17   6 3.17   5 3.17   8 3.17
  19  0.277  0.277  0.000-  11 3.17  10 3.17   9 3.17  12 3.17
  20  0.723  0.723  0.000-  10 3.17  11 3.17   9 3.17  12 3.17
  21  0.723  0.000  0.723-  13 3.17  16 3.17  15 3.17  14 3.17
  22  0.277  0.000  0.277-  16 3.17  13 3.17  15 3.17  14 3.17
 
  LATTYP: Found a body centered cubic cell.
 ALAT       =    10.0438198395
  
  Lattice vectors:
  
 A1 = (  -5.0219099197,   5.0219099197,   5.0219099197)
 A2 = (   5.0219099197,  -5.0219099197,   5.0219099197)
 A3 = (   5.0219099197,   5.0219099197,  -5.0219099197)
 Subroutine PRICEL returns:
 Original cell was already a primitive cell.
 

Analysis of symmetry for initial positions (statically):

 Routine SETGRP: Setting up the symmetry group for a 
 body centered cubic supercell.


 Subroutine GETGRP returns: Found 48 space group operations
 (whereof 48 operations were pure point group operations)
 out of a pool of 48 trial point group operations.


The static configuration has the point symmetry O_h .

Analysis of symmetry for dynamics (positions and initial velocities):

 Subroutine DYNSYM returns: Found 48 space group operations
 (whereof 48 operations were pure point group operations)
 out of a pool of 48 trial space group operations
 (whereof 48 operations were pure point group operations)
 and found also     1 'primitive' translations


The dynamic configuration has the point symmetry O_h .
 
 
 KPOINTS: KPOINTS File, automatically generated by

Automatic generation of k-mesh.
 
 Subroutine IBZKPT returns following result:
 ===========================================
 
 Found     26 irreducible k-points:
 
 Following reciprocal coordinates:
            Coordinates               Weight
  0.062500  0.062500  0.062500      8.000000
  0.187500  0.062500  0.062500     24.000000
  0.312500  0.062500  0.062500     24.000000
  0.437500  0.062500  0.062500     12.000000
 -0.062500  0.062500  0.062500      6.000000
  0.187500  0.187500  0.062500     24.000000
  0.312500  0.187500  0.062500     48.000000
 -0.187500  0.187500  0.062500     24.000000
  0.312500  0.312500  0.062500      8.000000
 -0.312500  0.312500  0.062500     24.000000
 -0.187500  0.312500  0.062500     24.000000
 -0.437500  0.437500  0.062500     24.000000
 -0.312500  0.437500  0.062500     48.000000
 -0.437500 -0.437500  0.062500     24.000000
 -0.312500 -0.437500  0.062500     24.000000
  0.187500  0.187500  0.187500      8.000000
  0.312500  0.187500  0.187500     12.000000
 -0.187500  0.187500  0.187500      6.000000
 -0.312500  0.312500  0.187500     24.000000
 -0.437500  0.437500  0.187500     24.000000
 -0.312500  0.437500  0.187500     24.000000
 -0.437500 -0.437500  0.187500     24.000000
 -0.312500  0.312500  0.312500      6.000000
 -0.437500  0.437500  0.312500     24.000000
 -0.437500 -0.437500  0.312500      8.000000
 -0.437500  0.437500  0.437500      6.000000
 
 Following cartesian coordinates:
            Coordinates               Weight
  0.012445  0.012445  0.012445      8.000000
  0.012445  0.024891  0.024891     24.000000
  0.012445  0.037336  0.037336     24.000000
  0.012445  0.049782  0.049782     12.000000
  0.012445  0.000000  0.000000      6.000000
  0.024891  0.024891  0.037336     24.000000
  0.024891  0.037336  0.049782     48.000000
  0.024891 -0.012445  0.000000     24.000000
  0.037336  0.037336  0.062227      8.000000
  0.037336 -0.024891  0.000000     24.000000
  0.037336 -0.012445  0.012445     24.000000
  0.049782 -0.037336  0.000000     24.000000
  0.049782 -0.024891  0.012445     48.000000
 -0.037336 -0.037336 -0.087118     24.000000
 -0.037336 -0.024891 -0.074673     24.000000
  0.037336  0.037336  0.037336      8.000000
  0.037336  0.049782  0.049782     12.000000
  0.037336  0.000000  0.000000      6.000000
  0.049782 -0.012445  0.000000     24.000000
  0.062227 -0.024891  0.000000     24.000000
  0.062227 -0.012445  0.012445     24.000000
 -0.024891 -0.024891 -0.087118     24.000000
  0.062227  0.000000  0.000000      6.000000
  0.074673 -0.012445  0.000000     24.000000
 -0.012445 -0.012445 -0.087118      8.000000
  0.087118  0.000000  0.000000      6.000000
 
 TETIRR: Found    534 inequivalent tetrahedra from     3072


--------------------------------------------------------------------------------------------------------




 Dimension of arrays:
   k-Points           NKPTS =     26   number of bands    NBANDS=    154
   number of dos      NEDOS =   5000   number of ions     NIONS =     22
   non local maximal  LDIM  =      6   non local SUM 2l+1 LMDIM =     18
   total plane-waves  NPLWV = 175616
   max r-space proj   IRMAX =      1   max aug-charges    IRDMAX=   6410
   dimension x,y,z NGX =    56 NGY =   56 NGZ =   56
   dimension x,y,z NGXF=    80 NGYF=   80 NGZF=   80
   support grid    NGXF=    80 NGYF=   80 NGZF=   80
   ions per type =              16   6
 NGX,Y,Z   is equivalent  to a cutoff of  10.70, 10.70, 10.70 a.u.
 NGXF,Y,Z  is equivalent  to a cutoff of  15.29, 15.29, 15.29 a.u.


 I would recommend the setting:
   dimension x,y,z NGX =    55 NGY =   55 NGZ =   55
 SYSTEM =  Ag8Ca3_ICSD_107145                      
 POSCAR =  Ag8Ca3   [BCC,BCC,cI44] (STD_PRIM doi:10

 Startparameter for this run:
   NWRITE =      2    write-flag & timer
   PREC   = high      medium, high low
   ISTART =      0    job   : 0-new  1-cont  2-samecut
   ICHARG =      2    charge: 1-file 2-atom 10-const
   ISPIN  =      1    spin polarized calculation?
   LNONCOLLINEAR =      F non collinear calculations
   LSORBIT =      F    spin-orbit coupling
   INIWAV =      1    electr: 0-lowe 1-rand  2-diag
   LASPH  =      F    aspherical Exc in radial PAW
   METAGGA=      F    non-selfconsistent MetaGGA calc.

 Electronic Relaxation 1
   ENCUT  =  373.2 eV  27.43 Ry    5.24 a.u.  13.70 13.70 13.70*2*pi/ulx,y,z
   ENINI  =  373.2     initial cutoff
   ENAUG  =  420.9 eV  augmentation charge cutoff
   NELM   =    120;   NELMIN=  2; NELMDL=  0     # of ELM steps 
   EDIFF  = 0.1E-03   stopping-criterion for ELM
   LREAL  =      F    real-space projection
   LCOMPAT=      F    compatible to vasp.4.4
   LREAL_COMPAT= F    compatible to vasp.4.5.1-3
   GGA_COMPAT  = T    GGA compatible to vasp.4.4-vasp.4.6
   LMAXPAW     = -100 max onsite density
   LMAXMIX     =    4 max onsite mixed and CHGCAR
   VOSKOWN=      0    Vosko Wilk Nusair interpolation
   ROPT   =    0.00000   0.00000
 Ionic relaxation
   EDIFFG = 0.1E-02   stopping-criterion for IOM
   NSW    =      0    number of steps for IOM
   NBLOCK =      1;   KBLOCK =      1    inner block; outer block 
   IBRION =     -1    ionic relax: 0-MD 1-quasi-New 2-CG
   NFREE  =      1    steps in history (QN), initial steepest desc. (CG)
   ISIF   =      2    stress and relaxation
   IWAVPR =     10    prediction:  0-non 1-charg 2-wave 3-comb
   ISYM   =      2    0-nonsym 1-usesym 2-fastsym
   LCORR  =      T    Harris-Foulkes like correction to forces

   POTIM  =   0.50    time-step for ionic-motion
   TEIN   =    0.0    initial temperature
   TEBEG  =    0.0;   TEEND  =   0.0 temperature during run
   SMASS  =  -3.00    Nose mass-parameter (am)
   estimated Nose-frequenzy (Omega)   =  0.10E-29 period in steps =****** mass=  -0.173E-26a.u.
   NPACO  =    256;   APACO  = 16.0  distance and # of slots for P.C.
   PSTRESS=    0.0 pullay stress

  Mass of Ions in am
   POMASS = 107.87 40.08
  Ionic Valenz
   ZVAL   =  11.00 10.00
  Atomic Wigner-Seitz radii
   RWIGS  =  -1.00 -1.00
   NELECT =     236.0000    total number of electrons
   NUPDOWN=      -1.0000    fix difference up-down

 DOS related values:
   EMIN   = -30.00;   EMAX   = 45.00  energy-range for DOS
   ISMEAR =    -5;   SIGMA  =   0.05  broadening in eV -4-tet -1-fermi 0-gaus

 Electronic relaxation 2 (details)
   IALGO  =     38    algorithm
   LDIAG  =      T    sub-space diagonalisation
   IMIX   =      4    mixing-type and parameters
     AMIX     =   0.40;   BMIX     =  1.00
     AMIX_MAG =   1.60;   BMIX_MAG =  1.00
     AMIN     =   0.10
     WC   =   100.;   INIMIX=   1;  MIXPRE=   1

 Intra band minimization:
   WEIMIN = 0.0000     energy-eigenvalue tresh-hold
   EBREAK =  0.16E-06  absolut break condition
   DEPER  =   0.30     relativ break condition  

   TIME   =   0.10     timestep for ELM

  volume/ion in A,a.u.               =      23.03       155.40
  Fermi-wavevector in a.u.,eV,Ry     =   1.269083 21.913147  1.610571

 Second variation
   LSECVAR=     F    do a second variation
 
 Write flags
   LWAVE  =      F    write WAVECAR
   LCHARG =      T    write CHGCAR
   LVTOT  =      F    write LOCPOT, local potential
   LELF   =      F    write electronic localiz. function (ELF)
   LORBIT =     10    0 simple, 1 ext, 2 COOP (PROOUT)


 Dipole corrections
   IDIPOL =      0    1-x, 2-y, 3-z
   LDIPOL =      F    correct potential

 LDA+U is selected, type is set to LDAUTYPE =  2
   angular momentum for each species LDAUL =     2    0
   U (eV)           for each species LDAUU =   5.8  0.0
   J (eV)           for each species LDAUJ =   0.0  0.0


--------------------------------------------------------------------------------------------------------


 Static calculation
 charge density will be updated during run
 non-spin polarized calculation
 Variant of blocked Davidson
 Davidson routine will perform the subspace rotation
 performe sub-space diagonalisation
    after iterative eigenvector-optimisation
 modified Broyden-mixing scheme, WC =      100.0
 initial mixing is a Kerker type mixing with AMIX =  0.4000 and BMIX =      1.0000
 Hartree-type preconditioning will be used
 using additional bands           36
 reciprocal scheme for non local part
 use partial core corrections
 calculate Harris-corrections to forces 
   (improved forces if not selfconsistent)
 use gradient corrections 
 use of overlap-Matrix (Vanderbilt PP)
 Fermi weights with tetrahedron method with Bloechl corrections


--------------------------------------------------------------------------------------------------------


  energy-cutoff  :      373.22
  volume of cell :      506.60
      direct lattice vectors                 reciprocal lattice vectors
    -5.021909920  5.021909920  5.021909920     0.000000000  0.099563713  0.099563713
     5.021909920 -5.021909920  5.021909920     0.099563713  0.000000000  0.099563713
     5.021909920  5.021909920 -5.021909920     0.099563713  0.099563713  0.000000000

  length of vectors
     8.698203132  8.698203132  8.698203132     0.140804354  0.140804354  0.140804354


 
 k-points in units of 2pi/SCALE and weight: KPOINTS File, automatically generated by
   0.01244546  0.01244546  0.01244546       0.016
   0.01244546  0.02489093  0.02489093       0.047
   0.01244546  0.03733639  0.03733639       0.047
   0.01244546  0.04978186  0.04978186       0.023
   0.01244546  0.00000000  0.00000000       0.012
   0.02489093  0.02489093  0.03733639       0.047
   0.02489093  0.03733639  0.04978186       0.094
   0.02489093 -0.01244546  0.00000000       0.047
   0.03733639  0.03733639  0.06222732       0.016
   0.03733639 -0.02489093  0.00000000       0.047
   0.03733639 -0.01244546  0.01244546       0.047
   0.04978186 -0.03733639  0.00000000       0.047
   0.04978186 -0.02489093  0.01244546       0.094
  -0.03733639 -0.03733639 -0.08711825       0.047
  -0.03733639 -0.02489093 -0.07467279       0.047
   0.03733639  0.03733639  0.03733639       0.016
   0.03733639  0.04978186  0.04978186       0.023
   0.03733639  0.00000000  0.00000000       0.012
   0.04978186 -0.01244546  0.00000000       0.047
   0.06222732 -0.02489093  0.00000000       0.047
   0.06222732 -0.01244546  0.01244546       0.047
  -0.02489093 -0.02489093 -0.08711825       0.047
   0.06222732  0.00000000  0.00000000       0.012
   0.07467279 -0.01244546  0.00000000       0.047
  -0.01244546 -0.01244546 -0.08711825       0.016
   0.08711825  0.00000000  0.00000000       0.012
 
 k-points in reciprocal lattice and weights: KPOINTS File, automatically generated by
   0.06250000  0.06250000  0.06250000       0.016
   0.18750000  0.06250000  0.06250000       0.047
   0.31250000  0.06250000  0.06250000       0.047
   0.43750000  0.06250000  0.06250000       0.023
  -0.06250000  0.06250000  0.06250000       0.012
   0.18750000  0.18750000  0.06250000       0.047
   0.31250000  0.18750000  0.06250000       0.094
  -0.18750000  0.18750000  0.06250000       0.047
   0.31250000  0.31250000  0.06250000       0.016
  -0.31250000  0.31250000  0.06250000       0.047
  -0.18750000  0.31250000  0.06250000       0.047
  -0.43750000  0.43750000  0.06250000       0.047
  -0.31250000  0.43750000  0.06250000       0.094
  -0.43750000 -0.43750000  0.06250000       0.047
  -0.31250000 -0.43750000  0.06250000       0.047
   0.18750000  0.18750000  0.18750000       0.016
   0.31250000  0.18750000  0.18750000       0.023
  -0.18750000  0.18750000  0.18750000       0.012
  -0.31250000  0.31250000  0.18750000       0.047
  -0.43750000  0.43750000  0.18750000       0.047
  -0.31250000  0.43750000  0.18750000       0.047
  -0.43750000 -0.43750000  0.18750000       0.047
  -0.31250000  0.31250000  0.31250000       0.012
  -0.43750000  0.43750000  0.31250000       0.047
  -0.43750000 -0.43750000  0.31250000       0.016
  -0.43750000  0.43750000  0.43750000       0.012
 
 position of ions in fractional coordinates (direct lattice) 
   0.00000000  0.50000000  0.00000000
   0.50000000  0.50000000  0.50000000
   0.50000000  0.00000000  0.00000000
   0.00000000  0.00000000  0.50000000
   0.00000000  0.65807201  0.34192799
   0.68385599  0.34192799  0.34192799
   0.31614401  0.65807201  0.65807201
   0.00000000  0.34192799  0.65807201
   0.34192799  0.65807201  0.00000000
   0.65807201  0.65807201  0.31614401
   0.34192799  0.34192799  0.68385599
   0.65807201  0.34192799  0.00000000
   0.65807201  0.31614401  0.65807201
   0.65807201  0.00000000  0.34192799
   0.34192799  0.00000000  0.65807201
   0.34192799  0.68385599  0.34192799
   0.00000000  0.27706131  0.27706131
   0.00000000  0.72293869  0.72293869
   0.27706131  0.27706131  0.00000000
   0.72293869  0.72293869  0.00000000
   0.72293869  0.00000000  0.72293869
   0.27706131  0.00000000  0.27706131
 
 position of ions in cartesian coordinates  (Angst):
   2.51095496 -2.51095496  2.51095496
   2.51095496  2.51095496  2.51095496
  -2.51095496  2.51095496  2.51095496
   2.51095496  2.51095496 -2.51095496
   5.02190992 -1.58764676  1.58764676
  -0.00000000  3.43426316  3.43426316
   5.02190992  1.58764676  1.58764676
   5.02190992  1.58764676 -1.58764676
   1.58764676 -1.58764676  5.02190992
   1.58764676  1.58764676  5.02190992
   3.43426316  3.43426316 -0.00000000
  -1.58764676  1.58764676  5.02190992
   1.58764676  5.02190992  1.58764676
  -1.58764676  5.02190992  1.58764676
   1.58764676  5.02190992 -1.58764676
   3.43426316 -0.00000000  3.43426316
   2.78275389  0.00000000  0.00000000
   7.26106595  0.00000000  0.00000000
   0.00000000  0.00000000  2.78275389
   0.00000000  0.00000000  7.26106595
   0.00000000  7.26106595  0.00000000
   0.00000000  2.78275389  0.00000000
 


--------------------------------------------------------------------------------------------------------


 k-point  1 :  0.06250.06250.0625  plane waves:   8298
 k-point  2 :  0.18750.06250.0625  plane waves:   8290
 k-point  3 :  0.31250.06250.0625  plane waves:   8313
 k-point  4 :  0.43750.06250.0625  plane waves:   8310
 k-point  5 :  -.06250.06250.0625  plane waves:   8311
 k-point  6 :  0.18750.18750.0625  plane waves:   8304
 k-point  7 :  0.31250.18750.0625  plane waves:   8299
 k-point  8 :  -.18750.18750.0625  plane waves:   8301
 k-point  9 :  0.31250.31250.0625  plane waves:   8322
 k-point 10 :  -.31250.31250.0625  plane waves:   8284
 k-point 11 :  -.18750.31250.0625  plane waves:   8298
 k-point 12 :  -.43750.43750.0625  plane waves:   8287
 k-point 13 :  -.31250.43750.0625  plane waves:   8291
 k-point 14 :  -.4375-.43750.0625  plane waves:   8286
 k-point 15 :  -.3125-.43750.0625  plane waves:   8289
 k-point 16 :  0.18750.18750.1875  plane waves:   8316
 k-point 17 :  0.31250.18750.1875  plane waves:   8290
 k-point 18 :  -.18750.18750.1875  plane waves:   8296
 k-point 19 :  -.31250.31250.1875  plane waves:   8295
 k-point 20 :  -.43750.43750.1875  plane waves:   8296
 k-point 21 :  -.31250.43750.1875  plane waves:   8287
 k-point 22 :  -.4375-.43750.1875  plane waves:   8273
 k-point 23 :  -.31250.31250.3125  plane waves:   8260
 k-point 24 :  -.43750.43750.3125  plane waves:   8285
 k-point 25 :  -.4375-.43750.3125  plane waves:   8311
 k-point 26 :  -.43750.43750.4375  plane waves:   8292

 maximum and minimum number of plane-waves per node :    544   489

 maximum number of plane-waves:   8322
 maximal index in each direction: 
   IXMAX= 14   IYMAX= 14   IZMAX= 13
   IXMIN=-14   IYMIN=-14   IZMIN=-14

 WARNING: wrap around error must be expected set NGX to  58
 WARNING: wrap around error must be expected set NGY to  58
 NGZ is ok and might be reduce to  56

 parallel 3dFFT wavefunction:
    minimum data exchange during FFTs selected (reduces bandwidth)
 parallel 3dFFT charge:
    minimum data exchange during FFTs selected (reduces bandwidth)

 For storing wavefunctions  531.45 MBYTES are necessary
 For predicting wavefunctions   43.69 MBYTES are necessary
Broyden mixing: mesh for mixing (old mesh)
   NGX = 27   NGY = 27   NGZ = 27
  (NGX  = 80   NGY  = 80   NGZ  = 80)
 gives a total of  19683 points
 initial charge density was supplied:
 charge density of overlapping atoms calculated
 number of electron  236.0000000 magnetization 
 keeping initial charge density in first step


--------------------------------------------------------------------------------------------------------


 Maximum index for augmentation-charges          356 (set IRDMAX)


--------------------------------------------------------------------------------------------------------


 First call to EWALD:  gamma=   0.222
 Maximum number of real-space cells 3x 3x 3
 Maximum number of reciprocal cells 3x 3x 3

    FEWALD:  VPU time    0.01: CPU time    0.01


----------------------------------------- Iteration    1(   1)  ---------------------------------------


    POTLOK:  VPU time    0.04: CPU time    0.04
    SETDIJ:  VPU time    0.01: CPU time    0.01
    EDDAV :  VPU time   26.48: CPU time   26.53
 BZINTS: Fermi energy: 11.804846;236.000000 electrons
         Band energy: 474.564441;  BLOECHL correction: -0.046245
    DOS   :  VPU time    0.00: CPU time   -0.00
    ------------------------------------------
      LOOP:  VPU time   27.18: CPU time   27.44

 eigenvalue-minimisations  :  8096
 total energy-change (2. order) : 0.2075370E+04  (-0.9617575E+04)
 number of electron  236.0000000 magnetization 
 augmentation part   236.0000000 magnetization 

 Free energy of the ion-electron system (eV)
  ---------------------------------------------------
  alpha Z        PSCENC =      1558.11019030
  Ewald energy   TEWEN  =    -17539.00099874
  -1/2 Hartree   DENC   =     -6319.19926466
  -V(xc)+E(xc)   XCENC  =        77.20098439
  PAW double counting   =     17636.61104158   -16445.57283556
  entropy T*S    EENTRO =         0.00000000
  eigenvalues    EBANDS =       474.56444132
  atomic energy  EATOM  =     22632.65596355
  ---------------------------------------------------
  free energy    TOTEN  =      2075.36952217 eV

  energy without entropy =     2075.36952217  energy(sigma->0) =     2075.36952217


--------------------------------------------------------------------------------------------------------




----------------------------------------- Iteration    1(   2)  ---------------------------------------


    EDDAV :  VPU time   43.91: CPU time   48.14
 BZINTS: Fermi energy:  3.644271;236.000000 electrons
         Band energy:***********;  BLOECHL correction: -0.026979
    DOS   :  VPU time    0.00: CPU time   -0.00
    ------------------------------------------
      LOOP:  VPU time   44.75: CPU time   49.21

 eigenvalue-minimisations  :  8116
 total energy-change (2. order) :-0.1978414E+04  (-0.1895078E+04)
 number of electron  236.0000000 magnetization 
 augmentation part   236.0000000 magnetization 

 Free energy of the ion-electron system (eV)
  ---------------------------------------------------
  alpha Z        PSCENC =      1558.11019030
  Ewald energy   TEWEN  =    -17539.00099874
  -1/2 Hartree   DENC   =     -6319.19926466
  -V(xc)+E(xc)   XCENC  =        77.20098439
  PAW double counting   =     17636.61104158   -16445.57283556
  entropy T*S    EENTRO =         0.00000000
  eigenvalues    EBANDS =     -1503.85001118
  atomic energy  EATOM  =     22632.65596355
  ---------------------------------------------------
  free energy    TOTEN  =        96.95506968 eV

  energy without entropy =       96.95506968  energy(sigma->0) =       96.95506968


--------------------------------------------------------------------------------------------------------




----------------------------------------- Iteration    1(   3)  ---------------------------------------


    EDDAV :  VPU time   31.73: CPU time   31.84
 BZINTS: Fermi energy:  2.971901;236.000000 electrons
         Band energy:***********;  BLOECHL correction: -0.033747
    DOS   :  VPU time    0.00: CPU time   -0.00
    ------------------------------------------
      LOOP:  VPU time   32.45: CPU time   33.00

 eigenvalue-minimisations  :  9556
 total energy-change (2. order) :-0.1141513E+03  (-0.1121240E+03)
 number of electron  236.0000000 magnetization 
 augmentation part   236.0000000 magnetization 

 Free energy of the ion-electron system (eV)
  ---------------------------------------------------
  alpha Z        PSCENC =      1558.11019030
  Ewald energy   TEWEN  =    -17539.00099874
  -1/2 Hartree   DENC   =     -6319.19926466
  -V(xc)+E(xc)   XCENC  =        77.20098439
  PAW double counting   =     17636.61104158   -16445.57283556
  entropy T*S    EENTRO =         0.00000000
  eigenvalues    EBANDS =     -1618.00128634
  atomic energy  EATOM  =     22632.65596355
  ---------------------------------------------------
  free energy    TOTEN  =       -17.19620548 eV

  energy without entropy =      -17.19620548  energy(sigma->0) =      -17.19620548


--------------------------------------------------------------------------------------------------------




----------------------------------------- Iteration    1(   4)  ---------------------------------------


    EDDAV :  VPU time   53.47: CPU time   54.20
 BZINTS: Fermi energy:  2.864292;236.000000 electrons
         Band energy:***********;  BLOECHL correction: -0.037579
    DOS   :  VPU time    0.00: CPU time   -0.00
    ------------------------------------------
      LOOP:  VPU time   54.38: CPU time   55.27

 eigenvalue-minimisations  : 13824
 total energy-change (2. order) :-0.6979568E+01  (-0.6901700E+01)
 number of electron  236.0000000 magnetization 
 augmentation part   236.0000000 magnetization 

 Free energy of the ion-electron system (eV)
  ---------------------------------------------------
  alpha Z        PSCENC =      1558.11019030
  Ewald energy   TEWEN  =    -17539.00099874
  -1/2 Hartree   DENC   =     -6319.19926466
  -V(xc)+E(xc)   XCENC  =        77.20098439
  PAW double counting   =     17636.61104158   -16445.57283556
  entropy T*S    EENTRO =         0.00000000
  eigenvalues    EBANDS =     -1624.98085426
  atomic energy  EATOM  =     22632.65596355
  ---------------------------------------------------
  free energy    TOTEN  =       -24.17577341 eV

  energy without entropy =      -24.17577341  energy(sigma->0) =      -24.17577341


--------------------------------------------------------------------------------------------------------




----------------------------------------- Iteration    1(   5)  ---------------------------------------


    EDDAV :  VPU time   33.68: CPU time   33.75
 BZINTS: Fermi energy:  2.862134;236.000000 electrons
         Band energy:***********;  BLOECHL correction: -0.037890
    DOS   :  VPU time    0.00: CPU time   -0.00
    CHARGE:  VPU time    1.48: CPU time    1.48
    MIXING:  VPU time    0.00: CPU time    0.00
    ------------------------------------------
      LOOP:  VPU time   35.98: CPU time   36.68

 eigenvalue-minimisations  :  9928
 total energy-change (2. order) :-0.2733201E+00  (-0.2730672E+00)
 number of electron  235.9999873 magnetization 
 augmentation part    98.3681968 magnetization 

 Broyden mixing:
  rms(total) = 0.10237E+01    rms(broyden)= 0.10232E+01
  rms(prec ) = 0.14247E+01
  weight for this iteration     100.00

 Free energy of the ion-electron system (eV)
  ---------------------------------------------------
  alpha Z        PSCENC =      1558.11019030
  Ewald energy   TEWEN  =    -17539.00099874
  -1/2 Hartree   DENC   =     -6319.19926466
  -V(xc)+E(xc)   XCENC  =        77.20098439
  PAW double counting   =     17636.61104158   -16445.57283556
  entropy T*S    EENTRO =         0.00000000
  eigenvalues    EBANDS =     -1625.25417431
  atomic energy  EATOM  =     22632.65596355
  ---------------------------------------------------
  free energy    TOTEN  =       -24.44909346 eV

  energy without entropy =      -24.44909346  energy(sigma->0) =      -24.44909346


--------------------------------------------------------------------------------------------------------




----------------------------------------- Iteration    1(   6)  ---------------------------------------


    POTLOK:  VPU time    0.04: CPU time    0.04
    SETDIJ:  VPU time    0.01: CPU time    0.01
    EDDAV :  VPU time   32.16: CPU time   32.23
 BZINTS: Fermi energy:  2.813761;236.000000 electrons
         Band energy:***********;  BLOECHL correction: -0.039890
    DOS   :  VPU time    0.00: CPU time   -0.00
    CHARGE:  VPU time    1.44: CPU time    1.44
    MIXING:  VPU time    0.00: CPU time    0.00
    ------------------------------------------
      LOOP:  VPU time   34.42: CPU time   34.95

 eigenvalue-minimisations  :  9496
 total energy-change (2. order) : 0.1380090E+01  (-0.5437066E+00)
 number of electron  235.9999874 magnetization 
 augmentation part    99.7664352 magnetization 

 Broyden mixing:
  rms(total) = 0.42375E+00    rms(broyden)= 0.42371E+00
  rms(prec ) = 0.55074E+00
  weight for this iteration     100.00

 eigenvalues of (default mixing * dielectric matrix)
  average eigenvalue GAMMA=   1.3935
  1.3935

 Free energy of the ion-electron system (eV)
  ---------------------------------------------------
  alpha Z        PSCENC =      1558.11019030
  Ewald energy   TEWEN  =    -17539.00099874
  -1/2 Hartree   DENC   =     -6226.01569827
  -V(xc)+E(xc)   XCENC  =        73.83090297
  PAW double counting   =     17761.51628278   -16595.01110015
  entropy T*S    EENTRO =         0.00000000
  eigenvalues    EBANDS =     -1689.15454615
  atomic energy  EATOM  =     22632.65596355
  ---------------------------------------------------
  free energy    TOTEN  =       -23.06900371 eV

  energy without entropy =      -23.06900371  energy(sigma->0) =      -23.06900371


--------------------------------------------------------------------------------------------------------




----------------------------------------- Iteration    1(   7)  ---------------------------------------


    POTLOK:  VPU time    0.04: CPU time    0.04
    SETDIJ:  VPU time    0.01: CPU time    0.01
    EDDAV :  VPU time   31.46: CPU time   31.52
 BZINTS: Fermi energy:  2.814440;236.000000 electrons
         Band energy:***********;  BLOECHL correction: -0.039315
    DOS   :  VPU time    0.00: CPU time   -0.00
    CHARGE:  VPU time    1.45: CPU time    1.45
    MIXING:  VPU time    0.00: CPU time    0.00
    ------------------------------------------
      LOOP:  VPU time   33.75: CPU time   34.00

 eigenvalue-minimisations  :  9216
 total energy-change (2. order) : 0.8737231E-01  (-0.2679196E-01)
 number of electron  235.9999873 magnetization 
 augmentation part    99.8720821 magnetization 

 Broyden mixing:
  rms(total) = 0.20030E+00    rms(broyden)= 0.20030E+00
  rms(prec ) = 0.25043E+00
  weight for this iteration     100.00

 eigenvalues of (default mixing * dielectric matrix)
  average eigenvalue GAMMA=   1.7647
  1.0456  2.4838

 Free energy of the ion-electron system (eV)
  ---------------------------------------------------
  alpha Z        PSCENC =      1558.11019030
  Ewald energy   TEWEN  =    -17539.00099874
  -1/2 Hartree   DENC   =     -6208.06423539
  -V(xc)+E(xc)   XCENC  =        72.98080437
  PAW double counting   =     17959.87726512   -16812.63621059
  entropy T*S    EENTRO =         0.00000000
  eigenvalues    EBANDS =     -1686.90441001
  atomic energy  EATOM  =     22632.65596355
  ---------------------------------------------------
  free energy    TOTEN  =       -22.98163140 eV

  energy without entropy =      -22.98163140  energy(sigma->0) =      -22.98163140


--------------------------------------------------------------------------------------------------------




----------------------------------------- Iteration    1(   8)  ---------------------------------------


    POTLOK:  VPU time    0.06: CPU time    0.06
    SETDIJ:  VPU time    0.01: CPU time    0.01
    EDDAV :  VPU time   34.65: CPU time   34.72
 BZINTS: Fermi energy:  2.821566;236.000000 electrons
         Band energy:***********;  BLOECHL correction: -0.038704
    DOS   :  VPU time    0.00: CPU time   -0.00
    CHARGE:  VPU time    1.45: CPU time    1.45
    MIXING:  VPU time    0.00: CPU time    0.00
    ------------------------------------------
      LOOP:  VPU time   36.98: CPU time   37.34

 eigenvalue-minimisations  :  9912
 total energy-change (2. order) : 0.1576131E-01  (-0.4525720E-02)
 number of electron  235.9999873 magnetization 
 augmentation part    99.8705656 magnetization 

 Broyden mixing:
  rms(total) = 0.28480E-01    rms(broyden)= 0.28473E-01
  rms(prec ) = 0.44354E-01
  weight for this iteration     100.00

 eigenvalues of (default mixing * dielectric matrix)
  average eigenvalue GAMMA=   1.5221
  2.4107  1.0008  1.1549

 Free energy of the ion-electron system (eV)
  ---------------------------------------------------
  alpha Z        PSCENC =      1558.11019030
  Ewald energy   TEWEN  =    -17539.00099874
  -1/2 Hartree   DENC   =     -6194.85171324
  -V(xc)+E(xc)   XCENC  =        72.41423543
  PAW double counting   =     18125.80042905   -16992.75430470
  entropy T*S    EENTRO =         0.00000000
  eigenvalues    EBANDS =     -1685.33967173
  atomic energy  EATOM  =     22632.65596355
  ---------------------------------------------------
  free energy    TOTEN  =       -22.96587009 eV

  energy without entropy =      -22.96587009  energy(sigma->0) =      -22.96587009


--------------------------------------------------------------------------------------------------------




----------------------------------------- Iteration    1(   9)  ---------------------------------------


    POTLOK:  VPU time    0.14: CPU time    0.14
    SETDIJ:  VPU time    0.03: CPU time    0.03
    EDDAV :  VPU time   57.82: CPU time   57.88
 BZINTS: Fermi energy:  2.822905;236.000000 electrons
         Band energy:***********;  BLOECHL correction: -0.038975
    DOS   :  VPU time    0.00: CPU time   -0.00
    CHARGE:  VPU time    1.49: CPU time    1.49
    MIXING:  VPU time    0.00: CPU time    0.00
    ------------------------------------------
      LOOP:  VPU time   60.28: CPU time   60.50

 eigenvalue-minimisations  :  9968
 total energy-change (2. order) : 0.4176587E-04  (-0.1022002E-02)
 number of electron  235.9999873 magnetization 
 augmentation part    99.8591365 magnetization 

 Broyden mixing:
  rms(total) = 0.66607E-02    rms(broyden)= 0.66503E-02
  rms(prec ) = 0.99249E-02
  weight for this iteration     100.00

 eigenvalues of (default mixing * dielectric matrix)
  average eigenvalue GAMMA=   1.4589
  2.2178  1.7312  1.0371  0.8494

 Free energy of the ion-electron system (eV)
  ---------------------------------------------------
  alpha Z        PSCENC =      1558.11019030
  Ewald energy   TEWEN  =    -17539.00099874
  -1/2 Hartree   DENC   =     -6192.15313293
  -V(xc)+E(xc)   XCENC  =        72.32521215
  PAW double counting   =     18151.32265959   -17019.75228772
  entropy T*S    EENTRO =         0.00000000
  eigenvalues    EBANDS =     -1686.47343453
  atomic energy  EATOM  =     22632.65596355
  ---------------------------------------------------
  free energy    TOTEN  =       -22.96582832 eV

  energy without entropy =      -22.96582832  energy(sigma->0) =      -22.96582832


--------------------------------------------------------------------------------------------------------




----------------------------------------- Iteration    1(  10)  ---------------------------------------


    POTLOK:  VPU time    0.09: CPU time    0.09
    SETDIJ:  VPU time    0.02: CPU time    0.02
    EDDAV :  VPU time   37.21: CPU time   38.08
 BZINTS: Fermi energy:  2.822902;236.000000 electrons
         Band energy:***********;  BLOECHL correction: -0.038990
    DOS   :  VPU time    0.00: CPU time   -0.00
    CHARGE:  VPU time    1.56: CPU time    1.56
    MIXING:  VPU time    0.00: CPU time    0.00
    ------------------------------------------
      LOOP:  VPU time   39.60: CPU time   40.89

 eigenvalue-minimisations  :  8656
 total energy-change (2. order) :-0.1457434E-03  (-0.7165739E-04)
 number of electron  235.9999873 magnetization 
 augmentation part    99.8522232 magnetization 

 Broyden mixing:
  rms(total) = 0.39723E-02    rms(broyden)= 0.39696E-02
  rms(prec ) = 0.56433E-02
  weight for this iteration     100.00

 eigenvalues of (default mixing * dielectric matrix)
  average eigenvalue GAMMA=   1.5589
  2.3496  2.3496  1.1781  0.9586  0.9586

 Free energy of the ion-electron system (eV)
  ---------------------------------------------------
  alpha Z        PSCENC =      1558.11019030
  Ewald energy   TEWEN  =    -17539.00099874
  -1/2 Hartree   DENC   =     -6192.36959035
  -V(xc)+E(xc)   XCENC  =        72.33421335
  PAW double counting   =     18154.43002226   -17022.63416341
  entropy T*S    EENTRO =         0.00000000
  eigenvalues    EBANDS =     -1686.49161104
  atomic energy  EATOM  =     22632.65596355
  ---------------------------------------------------
  free energy    TOTEN  =       -22.96597407 eV

  energy without entropy =      -22.96597407  energy(sigma->0) =      -22.96597407


--------------------------------------------------------------------------------------------------------




----------------------------------------- Iteration    1(  11)  ---------------------------------------


    POTLOK:  VPU time    0.04: CPU time    0.04
    SETDIJ:  VPU time    0.01: CPU time    0.01
    EDDAV :  VPU time   23.66: CPU time   23.71
 BZINTS: Fermi energy:  2.822836;236.000000 electrons
         Band energy:***********;  BLOECHL correction: -0.039014
    DOS   :  VPU time    0.00: CPU time   -0.00
    CHARGE:  VPU time    1.56: CPU time    1.57
    MIXING:  VPU time    0.00: CPU time    0.00
    ------------------------------------------
      LOOP:  VPU time   26.00: CPU time   26.34

 eigenvalue-minimisations  :  5760
 total energy-change (2. order) :-0.1138490E-03  (-0.1574430E-04)
 number of electron  235.9999874 magnetization 
 augmentation part    99.8496717 magnetization 

 Broyden mixing:
  rms(total) = 0.15487E-02    rms(broyden)= 0.15480E-02
  rms(prec ) = 0.23248E-02
  weight for this iteration     100.00

 eigenvalues of (default mixing * dielectric matrix)
  average eigenvalue GAMMA=   1.5665
  2.6272  2.0374  1.6187  1.1593  1.0581  0.8980

 Free energy of the ion-electron system (eV)
  ---------------------------------------------------
  alpha Z        PSCENC =      1558.11019030
  Ewald energy   TEWEN  =    -17539.00099874
  -1/2 Hartree   DENC   =     -6192.48410021
  -V(xc)+E(xc)   XCENC  =        72.34189393
  PAW double counting   =     18158.31802739   -17026.24784493
  entropy T*S    EENTRO =         0.00000000
  eigenvalues    EBANDS =     -1686.65921921
  atomic energy  EATOM  =     22632.65596355
  ---------------------------------------------------
  free energy    TOTEN  =       -22.96608792 eV

  energy without entropy =      -22.96608792  energy(sigma->0) =      -22.96608792


--------------------------------------------------------------------------------------------------------




----------------------------------------- Iteration    1(  12)  ---------------------------------------


    POTLOK:  VPU time    0.09: CPU time    0.09
    SETDIJ:  VPU time    0.03: CPU time    0.03
    EDDAV :  VPU time   34.59: CPU time   34.64
 BZINTS: Fermi energy:  2.822814;236.000000 electrons
         Band energy:***********;  BLOECHL correction: -0.039000
    DOS   :  VPU time    0.00: CPU time   -0.00
    ------------------------------------------
      LOOP:  VPU time   35.54: CPU time   36.07

 eigenvalue-minimisations  :  4784
 total energy-change (2. order) :-0.3786409E-04  (-0.5082642E-05)
 number of electron  235.9999874 magnetization 
 augmentation part    99.8496717 magnetization 

 Free energy of the ion-electron system (eV)
  ---------------------------------------------------
  alpha Z        PSCENC =      1558.11019030
  Ewald energy   TEWEN  =    -17539.00099874
  -1/2 Hartree   DENC   =     -6192.31045443
  -V(xc)+E(xc)   XCENC  =        72.33552549
  PAW double counting   =     18161.57204133   -17029.58429118
  entropy T*S    EENTRO =         0.00000000
  eigenvalues    EBANDS =     -1686.74410210
  atomic energy  EATOM  =     22632.65596355
  ---------------------------------------------------
  free energy    TOTEN  =       -22.96612578 eV

  energy without entropy =      -22.96612578  energy(sigma->0) =      -22.96612578


--------------------------------------------------------------------------------------------------------




 average (electrostatic) potential at core
  the test charge radii are     1.1249  1.1137
  (the norm of the test charge is              1.0000)
       1 -41.0789       2 -41.0789       3 -41.0789       4 -41.0789       5 -41.1724
       6 -41.1724       7 -41.1724       8 -41.1724       9 -41.1724      10 -41.1724
      11 -41.1724      12 -41.1724      13 -41.1724      14 -41.1724      15 -41.1724
      16 -41.1724      17 -48.0127      18 -48.0127      19 -48.0127      20 -48.0127
      21 -48.0127      22 -48.0127
 
 
 
 E-fermi :   2.8228     XC(G=0): -10.1955     alpha+bet : -8.1434
   add alpha+bet to get absolut eigen values

 k-point   1 :       0.0625    0.0625    0.0625
  band No.  band energies     occupation 
      1     -39.0491      2.00000
      2     -39.0447      2.00000
      3     -39.0447      2.00000
      4     -39.0447      2.00000
      5     -39.0428      2.00000
      6     -39.0428      2.00000
      7     -20.1433      2.00000
      8     -20.1175      2.00000
      9     -20.1175      2.00000
     10     -20.1170      2.00000
     11     -20.1082      2.00000
     12     -20.1082      2.00000
     13     -20.1079      2.00000
     14     -20.0870      2.00000
     15     -20.0870      2.00000
     16     -20.0863      2.00000
     17     -20.0861      2.00000
     18     -20.0861      2.00000
     19     -20.0736      2.00000
     20     -20.0731      2.00000
     21     -20.0731      2.00000
     22     -20.0699      2.00000
     23     -20.0699      2.00000
     24     -20.0699      2.00000
     25      -4.3671      2.00000
     26      -4.3585      2.00000
     27      -4.3585      2.00000
     28      -4.3189      2.00000
     29      -4.2708      2.00000
     30      -4.2708      2.00000
     31      -4.1408      2.00000
     32      -4.1195      2.00000
     33      -4.1195      2.00000
     34      -4.1015      2.00000
     35      -4.0687      2.00000
     36      -4.0363      2.00000
     37      -4.0363      2.00000
     38      -4.0326      2.00000
     39      -3.9460      2.00000
     40      -3.9460      2.00000
     41      -3.8568      2.00000
     42      -3.8444      2.00000
     43      -3.7217      2.00000
     44      -3.7217      2.00000
     45      -3.6568      2.00000
     46      -3.6532      2.00000
     47      -3.6532      2.00000
     48      -3.6410      2.00000
     49      -3.5789      2.00000
     50      -3.5789      2.00000
     51      -3.5226      2.00000
     52      -3.5226      2.00000
     53      -3.4757      2.00000
     54      -3.4644      2.00000
     55      -3.4644      2.00000
     56      -3.4599      2.00000
     57      -3.4144      2.00000
     58      -3.4144      2.00000
     59      -3.3602      2.00000
     60      -3.2286      2.00000
     61      -3.2259      2.00000
     62      -3.2259      2.00000
     63      -3.2012      2.00000
     64      -3.2012      2.00000
     65      -3.1562      2.00000
     66      -3.0994      2.00000
     67      -3.0986      2.00000
     68      -3.0934      2.00000
     69      -3.0934      2.00000
     70      -3.0500      2.00000
     71      -3.0500      2.00000
     72      -2.9872      2.00000
     73      -2.9872      2.00000
     74      -2.9379      2.00000
     75      -2.7841      2.00000
     76      -2.7841      2.00000
     77      -2.7754      2.00000
     78      -2.7725      2.00000
     79      -2.7725      2.00000
     80      -2.7405      2.00000
     81      -2.7405      2.00000
     82      -2.7220      2.00000
     83      -2.6690      2.00000
     84      -2.6217      2.00000
     85      -2.6217      2.00000
     86      -2.6188      2.00000
     87      -2.5131      2.00000
     88      -2.5131      2.00000
     89      -2.4715      2.00000
     90      -2.4715      2.00000
     91      -2.4698      2.00000
     92      -2.4490      2.00000
     93      -2.4038      2.00000
     94      -2.4038      2.00000
     95      -2.3831      2.00000
     96      -2.3831      2.00000
     97      -2.2834      2.00000
     98      -2.2519      2.00000
     99      -2.2519      2.00000
    100      -2.1701      2.00000
    101      -2.1259      2.00000
    102      -2.1259      2.00000
    103      -2.0117      2.00000
    104      -2.0048      2.00000
    105      -2.0048      2.00000
    106      -0.8358      2.00000
    107      -0.8358      2.00000
    108      -0.3574      2.00000
    109      -0.2678      2.00000
    110       0.2093      2.00000
    111       0.2093      2.00000
    112       0.5673      2.00000
    113       0.5673      2.00000
    114       1.0847      2.00000
    115       1.4451      2.00000
    116       1.4451      2.00000
    117       2.0403      2.00000
    118       2.4767      2.00000
    119       3.0822     -0.14447
    120       3.0822      0.00000
    121       3.9143      0.00000
    122       3.9815      0.00000
    123       3.9897      0.00000
    124       3.9897      0.00000
    125       4.1236      0.00000
    126       4.1236      0.00000
    127       4.3284      0.00000
    128       4.3536      0.00000
    129       4.3536      0.00000
    130       4.4174      0.00000
    131       4.5747      0.00000
    132       4.5747      0.00000
    133       4.7154      0.00000
    134       4.7154      0.00000
    135       4.7172      0.00000
    136       5.5855      0.00000
    137       5.5855      0.00000
    138       5.8589      0.00000
    139       5.9080      0.00000
    140       5.9080      0.00000
    141       5.9287      0.00000
    142       5.9923      0.00000
    143       5.9923      0.00000
    144       6.2217      0.00000
    145       6.2422      0.00000
    146       6.2422      0.00000
    147       6.3466      0.00000
    148       6.7049      0.00000
    149       6.7049      0.00000
    150       6.7970      0.00000
    151       7.5638      0.00000
    152       7.5665      0.00000
    153       7.6805      0.00000
    154       7.7020      0.00000

 k-point   2 :       0.1875    0.0625    0.0625
  band No.  band energies     occupation 
      1     -39.0491      2.00000
      2     -39.0448      2.00000
      3     -39.0448      2.00000
      4     -39.0447      2.00000
      5     -39.0428      2.00000
      6     -39.0427      2.00000
      7     -20.1413      2.00000
      8     -20.1197      2.00000
      9     -20.1191      2.00000
     10     -20.1172      2.00000
     11     -20.1085      2.00000
     12     -20.1084      2.00000
     13     -20.1078      2.00000
     14     -20.0862      2.00000
     15     -20.0861      2.00000
     16     -20.0858      2.00000
     17     -20.0856      2.00000
     18     -20.0840      2.00000
     19     -20.0749      2.00000
     20     -20.0738      2.00000
     21     -20.0731      2.00000
     22     -20.0701      2.00000
     23     -20.0700      2.00000
     24     -20.0700      2.00000
     25      -4.3735      2.00000
     26      -4.3382      2.00000
     27      -4.3258      2.00000
     28      -4.3171      2.00000
     29      -4.2572      2.00000
     30      -4.2473      2.00000
     31      -4.1352      2.00000
     32      -4.1330      2.00000
     33      -4.0976      2.00000
     34      -4.0852      2.00000
     35      -4.0593      2.00000
     36      -3.9985      2.00000
     37      -3.9941      2.00000
     38      -3.9783      2.00000
     39      -3.9624      2.00000
     40      -3.9530      2.00000
     41      -3.8747      2.00000
     42      -3.8040      2.00000
     43      -3.7773      2.00000
     44      -3.7620      2.00000
     45      -3.7332      2.00000
     46      -3.6942      2.00000
     47      -3.6780      2.00000
     48      -3.6160      2.00000
     49      -3.6106      2.00000
     50      -3.5895      2.00000
     51      -3.5285      2.00000
     52      -3.5134      2.00000
     53      -3.5112      2.00000
     54      -3.4873      2.00000
     55      -3.4625      2.00000
     56      -3.4268      2.00000
     57      -3.4091      2.00000
     58      -3.3590      2.00000
     59      -3.3175      2.00000
     60      -3.2978      2.00000
     61      -3.2723      2.00000
     62      -3.2250      2.00000
     63      -3.2019      2.00000
     64      -3.1653      2.00000
     65      -3.1364      2.00000
     66      -3.0797      2.00000
     67      -3.0763      2.00000
     68      -3.0501      2.00000
     69      -3.0323      2.00000
     70      -3.0085      2.00000
     71      -3.0050      2.00000
     72      -2.9756      2.00000
     73      -2.9341      2.00000
     74      -2.8672      2.00000
     75      -2.8325      2.00000
     76      -2.8163      2.00000
     77      -2.8155      2.00000
     78      -2.8094      2.00000
     79      -2.7868      2.00000
     80      -2.7566      2.00000
     81      -2.7515      2.00000
     82      -2.7245      2.00000
     83      -2.6483      2.00000
     84      -2.6272      2.00000
     85      -2.6253      2.00000
     86      -2.6208      2.00000
     87      -2.5859      2.00000
     88      -2.5600      2.00000
     89      -2.4917      2.00000
     90      -2.4834      2.00000
     91      -2.4687      2.00000
     92      -2.4572      2.00000
     93      -2.4326      2.00000
     94      -2.4167      2.00000
     95      -2.3677      2.00000
     96      -2.3206      2.00000
     97      -2.3004      2.00000
     98      -2.2528      2.00000
     99      -2.2327      2.00000
    100      -2.2110      2.00000
    101      -2.1382      2.00000
    102      -2.0995      2.00000
    103      -2.0285      2.00000
    104      -2.0149      2.00000
    105      -2.0129      2.00000
    106      -1.3469      2.00000
    107      -1.0244      2.00000
    108      -0.5043      2.00000
    109      -0.3159      2.00000
    110       0.2612      2.00000
    111       0.4505      2.00000
    112       0.7337      2.00000
    113       0.7551      2.00000
    114       1.3342      2.00000
    115       1.9677      2.00000
    116       1.9733      2.00000
    117       2.1194      2.00000
    118       2.5580      2.00213
    119       2.6140      2.35241
    120       3.0367      0.00000
    121       3.4660      0.00000
    122       3.6409      0.00000
    123       3.7942      0.00000
    124       3.9679      0.00000
    125       4.0738      0.00000
    126       4.1420      0.00000
    127       4.3336      0.00000
    128       4.3529      0.00000
    129       4.3769      0.00000
    130       4.4444      0.00000
    131       4.6549      0.00000
    132       4.7162      0.00000
    133       4.7781      0.00000
    134       4.8049      0.00000
    135       4.8145      0.00000
    136       5.3923      0.00000
    137       5.5544      0.00000
    138       5.6631      0.00000
    139       5.8579      0.00000
    140       5.8789      0.00000
    141       5.8977      0.00000
    142       5.9757      0.00000
    143       6.0262      0.00000
    144       6.2778      0.00000
    145       6.2993      0.00000
    146       6.3670      0.00000
    147       6.3700      0.00000
    148       6.5665      0.00000
    149       6.7474      0.00000
    150       6.8536      0.00000
    151       7.3717      0.00000
    152       7.4123      0.00000
    153       7.6148      0.00000
    154       7.6930      0.00000

 k-point   3 :       0.3125    0.0625    0.0625
  band No.  band energies     occupation 
      1     -39.0490      2.00000
      2     -39.0450      2.00000
      3     -39.0449      2.00000
      4     -39.0447      2.00000
      5     -39.0428      2.00000
      6     -39.0426      2.00000
      7     -20.1390      2.00000
      8     -20.1216      2.00000
      9     -20.1212      2.00000
     10     -20.1172      2.00000
     11     -20.1088      2.00000
     12     -20.1086      2.00000
     13     -20.1077      2.00000
     14     -20.0859      2.00000
     15     -20.0856      2.00000
     16     -20.0854      2.00000
     17     -20.0847      2.00000
     18     -20.0808      2.00000
     19     -20.0765      2.00000
     20     -20.0750      2.00000
     21     -20.0731      2.00000
     22     -20.0704      2.00000
     23     -20.0701      2.00000
     24     -20.0701      2.00000
     25      -4.3793      2.00000
     26      -4.3543      2.00000
     27      -4.3109      2.00000
     28      -4.2709      2.00000
     29      -4.2225      2.00000
     30      -4.1757      2.00000
     31      -4.1610      2.00000
     32      -4.1344      2.00000
     33      -4.0820      2.00000
     34      -4.0693      2.00000
     35      -4.0423      2.00000
     36      -4.0212      2.00000
     37      -3.9997      2.00000
     38      -3.9521      2.00000
     39      -3.9359      2.00000
     40      -3.9193      2.00000
     41      -3.8520      2.00000
     42      -3.8248      2.00000
     43      -3.7930      2.00000
     44      -3.7881      2.00000
     45      -3.7588      2.00000
     46      -3.7225      2.00000
     47      -3.6804      2.00000
     48      -3.6153      2.00000
     49      -3.6140      2.00000
     50      -3.5989      2.00000
     51      -3.5713      2.00000
     52      -3.5294      2.00000
     53      -3.5242      2.00000
     54      -3.5082      2.00000
     55      -3.4792      2.00000
     56      -3.4147      2.00000
     57      -3.3991      2.00000
     58      -3.3806      2.00000
     59      -3.3364      2.00000
     60      -3.3063      2.00000
     61      -3.2679      2.00000
     62      -3.2427      2.00000
     63      -3.2030      2.00000
     64      -3.1712      2.00000
     65      -3.1109      2.00000
     66      -3.0811      2.00000
     67      -3.0635      2.00000
     68      -2.9978      2.00000
     69      -2.9765      2.00000
     70      -2.9326      2.00000
     71      -2.9289      2.00000
     72      -2.8975      2.00000
     73      -2.8913      2.00000
     74      -2.8775      2.00000
     75      -2.8556      2.00000
     76      -2.8476      2.00000
     77      -2.8399      2.00000
     78      -2.8284      2.00000
     79      -2.7735      2.00000
     80      -2.7656      2.00000
     81      -2.7447      2.00000
     82      -2.7016      2.00000
     83      -2.6544      2.00000
     84      -2.6478      2.00000
     85      -2.6244      2.00000
     86      -2.6026      2.00000
     87      -2.5978      2.00000
     88      -2.5847      2.00000
     89      -2.5625      2.00000
     90      -2.5020      2.00000
     91      -2.4754      2.00000
     92      -2.4592      2.00000
     93      -2.4500      2.00000
     94      -2.4322      2.00000
     95      -2.3814      2.00000
     96      -2.3017      2.00000
     97      -2.2836      2.00000
     98      -2.2635      2.00000
     99      -2.2349      2.00000
    100      -2.2097      2.00000
    101      -2.1614      2.00000
    102      -2.1166      2.00000
    103      -2.0485      2.00000
    104      -2.0177      2.00000
    105      -1.9953      2.00000
    106      -1.8305      2.00000
    107      -1.1293      2.00000
    108      -0.6493      2.00000
    109      -0.3535      2.00000
    110       0.2622      2.00000
    111       0.5778      2.00000
    112       0.8610      2.00000
    113       1.2891      2.00000
    114       1.7336      2.00000
    115       1.9176      2.00000
    116       2.1405      2.00000
    117       2.5286      2.00000
    118       2.5543      2.00447
    119       2.8353      0.69441
    120       2.9716      0.00006
    121       3.1832      0.00000
    122       3.3554      0.00000
    123       3.5310      0.00000
    124       3.7740      0.00000
    125       3.8104      0.00000
    126       3.9470      0.00000
    127       4.2503      0.00000
    128       4.2779      0.00000
    129       4.4013      0.00000
    130       4.4921      0.00000
    131       4.6914      0.00000
    132       4.7877      0.00000
    133       4.9041      0.00000
    134       5.0217      0.00000
    135       5.0372      0.00000
    136       5.2680      0.00000
    137       5.4114      0.00000
    138       5.4947      0.00000
    139       5.8326      0.00000
    140       5.8763      0.00000
    141       5.8865      0.00000
    142       5.9430      0.00000
    143       6.0096      0.00000
    144       6.2060      0.00000
    145       6.3618      0.00000
    146       6.3848      0.00000
    147       6.4551      0.00000
    148       6.5321      0.00000
    149       6.8431      0.00000
    150       6.9201      0.00000
    151       7.1841      0.00000
    152       7.3042      0.00000
    153       7.3221      0.00000
    154       7.7438      0.00000

 k-point   4 :       0.4375    0.0625    0.0625
  band No.  band energies     occupation 
      1     -39.0489      2.00000
      2     -39.0450      2.00000
      3     -39.0450      2.00000
      4     -39.0447      2.00000
      5     -39.0428      2.00000
      6     -39.0426      2.00000
      7     -20.1379      2.00000
      8     -20.1224      2.00000
      9     -20.1222      2.00000
     10     -20.1172      2.00000
     11     -20.1089      2.00000
     12     -20.1086      2.00000
     13     -20.1077      2.00000
     14     -20.0858      2.00000
     15     -20.0854      2.00000
     16     -20.0853      2.00000
     17     -20.0841      2.00000
     18     -20.0788      2.00000
     19     -20.0773      2.00000
     20     -20.0762      2.00000
     21     -20.0731      2.00000
     22     -20.0704      2.00000
     23     -20.0701      2.00000
     24     -20.0701      2.00000
     25      -4.3769      2.00000
     26      -4.3724      2.00000
     27      -4.2947      2.00000
     28      -4.2361      2.00000
     29      -4.2115      2.00000
     30      -4.1469      2.00000
     31      -4.1435      2.00000
     32      -4.1427      2.00000
     33      -4.0912      2.00000
     34      -4.0769      2.00000
     35      -4.0680      2.00000
     36      -4.0298      2.00000
     37      -3.9786      2.00000
     38      -3.9315      2.00000
     39      -3.9181      2.00000
     40      -3.8985      2.00000
     41      -3.8598      2.00000
     42      -3.8584      2.00000
     43      -3.8233      2.00000
     44      -3.7758      2.00000
     45      -3.7330      2.00000
     46      -3.7305      2.00000
     47      -3.6644      2.00000
     48      -3.6144      2.00000
     49      -3.6002      2.00000
     50      -3.5984      2.00000
     51      -3.5708      2.00000
     52      -3.5489      2.00000
     53      -3.5340      2.00000
     54      -3.5265      2.00000
     55      -3.5230      2.00000
     56      -3.4507      2.00000
     57      -3.4017      2.00000
     58      -3.3860      2.00000
     59      -3.2981      2.00000
     60      -3.2929      2.00000
     61      -3.2918      2.00000
     62      -3.2514      2.00000
     63      -3.1862      2.00000
     64      -3.1804      2.00000
     65      -3.1056      2.00000
     66      -3.1014      2.00000
     67      -3.0509      2.00000
     68      -2.9871      2.00000
     69      -2.9833      2.00000
     70      -2.9351      2.00000
     71      -2.9072      2.00000
     72      -2.8847      2.00000
     73      -2.8522      2.00000
     74      -2.8466      2.00000
     75      -2.8406      2.00000
     76      -2.8269      2.00000
     77      -2.8259      2.00000
     78      -2.7897      2.00000
     79      -2.7846      2.00000
     80      -2.7807      2.00000
     81      -2.7778      2.00000
     82      -2.7143      2.00000
     83      -2.6656      2.00000
     84      -2.6301      2.00000
     85      -2.6183      2.00000
     86      -2.6034      2.00000
     87      -2.5950      2.00000
     88      -2.5863      2.00000
     89      -2.5147      2.00000
     90      -2.5142      2.00000
     91      -2.4721      2.00000
     92      -2.4558      2.00000
     93      -2.4288      2.00000
     94      -2.4111      2.00000
     95      -2.4102      2.00000
     96      -2.3011      2.00000
     97      -2.3007      2.00000
     98      -2.2601      2.00000
     99      -2.2421      2.00000
    100      -2.1908      2.00000
    101      -2.1891      2.00000
    102      -2.1837      2.00000
    103      -2.1254      2.00000
    104      -2.0176      2.00000
    105      -2.0081      2.00000
    106      -1.9704      2.00000
    107      -1.1626      2.00000
    108      -0.6973      2.00000
    109      -0.3747      2.00000
    110       0.2549      2.00000
    111       0.6576      2.00000
    112       0.9337      2.00000
    113       1.6429      2.00000
    114       1.7135      2.00000
    115       2.0027      2.00000
    116       2.2783      2.00000
    117       2.3000      2.00000
    118       2.5625      2.00369
    119       3.0714     -0.30573
    120       3.1248     -0.00190
    121       3.1385      0.00000
    122       3.4113      0.00000
    123       3.4482      0.00000
    124       3.4606      0.00000
    125       3.7379      0.00000
    126       3.7381      0.00000
    127       4.1334      0.00000
    128       4.2387      0.00000
    129       4.4205      0.00000
    130       4.5069      0.00000
    131       4.7363      0.00000
    132       4.7841      0.00000
    133       5.0299      0.00000
    134       5.1646      0.00000
    135       5.1708      0.00000
    136       5.1868      0.00000
    137       5.2362      0.00000
    138       5.4288      0.00000
    139       5.8283      0.00000
    140       5.8774      0.00000
    141       5.8909      0.00000
    142       5.9268      0.00000
    143       5.9944      0.00000
    144       6.1761      0.00000
    145       6.3019      0.00000
    146       6.3869      0.00000
    147       6.4808      0.00000
    148       6.6011      0.00000
    149       6.9184      0.00000
    150       6.9655      0.00000
    151       7.0742      0.00000
    152       7.1812      0.00000
    153       7.3397      0.00000
    154       7.6485      0.00000

 k-point   5 :      -0.0625    0.0625    0.0625
  band No.  band energies     occupation 
      1     -39.0492      2.00000
      2     -39.0447      2.00000
      3     -39.0446      2.00000
      4     -39.0446      2.00000
      5     -39.0429      2.00000
      6     -39.0429      2.00000
      7     -20.1440      2.00000
      8     -20.1174      2.00000
      9     -20.1165      2.00000
     10     -20.1165      2.00000
     11     -20.1080      2.00000
     12     -20.1080      2.00000
     13     -20.1080      2.00000
     14     -20.0883      2.00000
     15     -20.0874      2.00000
     16     -20.0863      2.00000
     17     -20.0863      2.00000
     18     -20.0863      2.00000
     19     -20.0732      2.00000
     20     -20.0728      2.00000
     21     -20.0728      2.00000
     22     -20.0699      2.00000
     23     -20.0699      2.00000
     24     -20.0699      2.00000
     25      -4.3656      2.00000
     26      -4.3656      2.00000
     27      -4.3618      2.00000
     28      -4.3531      2.00000
     29      -4.2693      2.00000
     30      -4.2414      2.00000
     31      -4.1428      2.00000
     32      -4.1424      2.00000
     33      -4.1424      2.00000
     34      -4.1075      2.00000
     35      -4.0607      2.00000
     36      -4.0607      2.00000
     37      -4.0579      2.00000
     38      -4.0114      2.00000
     39      -3.9412      2.00000
     40      -3.9412      2.00000
     41      -3.9020      2.00000
     42      -3.8323      2.00000
     43      -3.7008      2.00000
     44      -3.6799      2.00000
     45      -3.6799      2.00000
     46      -3.6198      2.00000
     47      -3.6198      2.00000
     48      -3.6031      2.00000
     49      -3.5874      2.00000
     50      -3.5564      2.00000
     51      -3.5281      2.00000
     52      -3.4947      2.00000
     53      -3.4947      2.00000
     54      -3.4806      2.00000
     55      -3.4702      2.00000
     56      -3.4445      2.00000
     57      -3.4445      2.00000
     58      -3.4211      2.00000
     59      -3.4211      2.00000
     60      -3.2687      2.00000
     61      -3.2229      2.00000
     62      -3.1948      2.00000
     63      -3.1664      2.00000
     64      -3.1535      2.00000
     65      -3.1522      2.00000
     66      -3.1333      2.00000
     67      -3.1333      2.00000
     68      -3.1031      2.00000
     69      -3.1031      2.00000
     70      -3.0871      2.00000
     71      -3.0534      2.00000
     72      -3.0019      2.00000
     73      -2.9764      2.00000
     74      -2.9764      2.00000
     75      -2.7738      2.00000
     76      -2.7737      2.00000
     77      -2.7705      2.00000
     78      -2.7674      2.00000
     79      -2.7607      2.00000
     80      -2.7294      2.00000
     81      -2.7294      2.00000
     82      -2.7182      2.00000
     83      -2.6785      2.00000
     84      -2.6197      2.00000
     85      -2.6137      2.00000
     86      -2.6137      2.00000
     87      -2.4872      2.00000
     88      -2.4701      2.00000
     89      -2.4675      2.00000
     90      -2.4675      2.00000
     91      -2.4466      2.00000
     92      -2.4466      2.00000
     93      -2.4323      2.00000
     94      -2.4134      2.00000
     95      -2.3940      2.00000
     96      -2.3717      2.00000
     97      -2.2875      2.00000
     98      -2.2875      2.00000
     99      -2.2417      2.00000
    100      -2.1408      2.00000
    101      -2.1408      2.00000
    102      -2.1314      2.00000
    103      -2.0027      2.00000
    104      -1.9976      2.00000
    105      -1.9976      2.00000
    106      -0.5865      2.00000
    107      -0.5600      2.00000
    108      -0.5600      2.00000
    109      -0.0021      2.00000
    110       0.0583      2.00000
    111       0.0583      2.00000
    112       0.3664      2.00000
    113       0.6749      2.00000
    114       1.1148      2.00000
    115       1.1620      2.00000
    116       1.1620      2.00000
    117       1.8641      2.00000
    118       2.5360      2.00000
    119       3.2091     -0.05501
    120       3.5290      0.00000
    121       3.7670      0.00000
    122       3.7670      0.00000
    123       4.0553      0.00000
    124       4.0761      0.00000
    125       4.2302      0.00000
    126       4.2659      0.00000
    127       4.2659      0.00000
    128       4.3003      0.00000
    129       4.3175      0.00000
    130       4.5073      0.00000
    131       4.5201      0.00000
    132       4.5201      0.00000
    133       4.6824      0.00000
    134       4.6824      0.00000
    135       4.7239      0.00000
    136       5.6050      0.00000
    137       5.7010      0.00000
    138       5.9309      0.00000
    139       5.9309      0.00000
    140       5.9492      0.00000
    141       5.9492      0.00000
    142       5.9679      0.00000
    143       5.9786      0.00000
    144       6.1624      0.00000
    145       6.1624      0.00000
    146       6.2035      0.00000
    147       6.3728      0.00000
    148       6.7180      0.00000
    149       6.7582      0.00000
    150       6.7582      0.00000
    151       7.5370      0.00000
    152       7.5793      0.00000
    153       7.7480      0.00000
    154       7.8053      0.00000

 k-point   6 :       0.1875    0.1875    0.0625
  band No.  band energies     occupation 
      1     -39.0490      2.00000
      2     -39.0449      2.00000
      3     -39.0448      2.00000
      4     -39.0448      2.00000
      5     -39.0427      2.00000
      6     -39.0426      2.00000
      7     -20.1391      2.00000
      8     -20.1214      2.00000
      9     -20.1196      2.00000
     10     -20.1188      2.00000
     11     -20.1087      2.00000
     12     -20.1085      2.00000
     13     -20.1078      2.00000
     14     -20.0859      2.00000
     15     -20.0855      2.00000
     16     -20.0855      2.00000
     17     -20.0840      2.00000
     18     -20.0818      2.00000
     19     -20.0761      2.00000
     20     -20.0742      2.00000
     21     -20.0738      2.00000
     22     -20.0702      2.00000
     23     -20.0702      2.00000
     24     -20.0701      2.00000
     25      -4.3646      2.00000
     26      -4.3264      2.00000
     27      -4.3125      2.00000
     28      -4.3015      2.00000
     29      -4.2653      2.00000
     30      -4.1729      2.00000
     31      -4.1513      2.00000
     32      -4.1301      2.00000
     33      -4.0893      2.00000
     34      -4.0759      2.00000
     35      -4.0248      2.00000
     36      -4.0033      2.00000
     37      -3.9899      2.00000
     38      -3.9620      2.00000
     39      -3.9512      2.00000
     40      -3.9400      2.00000
     41      -3.8554      2.00000
     42      -3.8363      2.00000
     43      -3.8198      2.00000
     44      -3.7593      2.00000
     45      -3.7514      2.00000
     46      -3.7142      2.00000
     47      -3.6610      2.00000
     48      -3.6568      2.00000
     49      -3.6198      2.00000
     50      -3.6018      2.00000
     51      -3.5558      2.00000
     52      -3.5291      2.00000
     53      -3.5111      2.00000
     54      -3.4943      2.00000
     55      -3.4805      2.00000
     56      -3.4124      2.00000
     57      -3.3933      2.00000
     58      -3.3859      2.00000
     59      -3.3545      2.00000
     60      -3.3314      2.00000
     61      -3.2432      2.00000
     62      -3.2329      2.00000
     63      -3.2274      2.00000
     64      -3.1444      2.00000
     65      -3.0890      2.00000
     66      -3.0335      2.00000
     67      -3.0329      2.00000
     68      -3.0035      2.00000
     69      -2.9972      2.00000
     70      -2.9771      2.00000
     71      -2.9218      2.00000
     72      -2.9189      2.00000
     73      -2.9095      2.00000
     74      -2.8892      2.00000
     75      -2.8728      2.00000
     76      -2.8506      2.00000
     77      -2.8428      2.00000
     78      -2.8067      2.00000
     79      -2.7701      2.00000
     80      -2.7664      2.00000
     81      -2.7339      2.00000
     82      -2.7331      2.00000
     83      -2.6561      2.00000
     84      -2.6473      2.00000
     85      -2.6432      2.00000
     86      -2.6061      2.00000
     87      -2.5905      2.00000
     88      -2.5836      2.00000
     89      -2.5244      2.00000
     90      -2.5090      2.00000
     91      -2.4712      2.00000
     92      -2.4658      2.00000
     93      -2.4299      2.00000
     94      -2.4195      2.00000
     95      -2.3365      2.00000
     96      -2.3347      2.00000
     97      -2.2807      2.00000
     98      -2.2760      2.00000
     99      -2.2661      2.00000
    100      -2.2050      2.00000
    101      -2.1499      2.00000
    102      -2.0806      2.00000
    103      -2.0549      2.00000
    104      -2.0192      2.00000
    105      -2.0192      2.00000
    106      -1.5908      2.00000
    107      -1.3968      2.00000
    108      -0.7724      2.00000
    109      -0.1021      2.00000
    110       0.4253      2.00000
    111       0.6481      2.00000
    112       0.8676      2.00000
    113       1.0719      2.00000
    114       1.4239      2.00000
[...]
     15     -20.0876      2.00000
     16     -20.0858      2.00000
     17     -20.0857      2.00000
     18     -20.0857      2.00000
     19     -20.0738      2.00000
     20     -20.0735      2.00000
     21     -20.0735      2.00000
     22     -20.0695      2.00000
     23     -20.0695      2.00000
     24     -20.0695      2.00000
     25      -4.3203      2.00000
     26      -4.3120      2.00000
     27      -4.3120      2.00000
     28      -4.3015      2.00000
     29      -4.2970      2.00000
     30      -4.2970      2.00000
     31      -4.1845      2.00000
     32      -4.1748      2.00000
     33      -4.1446      2.00000
     34      -4.1202      2.00000
     35      -3.9011      2.00000
     36      -3.8994      2.00000
     37      -3.8994      2.00000
     38      -3.8779      2.00000
     39      -3.8779      2.00000
     40      -3.8576      2.00000
     41      -3.7331      2.00000
     42      -3.7183      2.00000
     43      -3.7019      2.00000
     44      -3.6174      2.00000
     45      -3.6174      2.00000
     46      -3.5689      2.00000
     47      -3.5614      2.00000
     48      -3.5400      2.00000
     49      -3.5400      2.00000
     50      -3.5228      2.00000
     51      -3.4983      2.00000
     52      -3.4780      2.00000
     53      -3.4753      2.00000
     54      -3.4753      2.00000
     55      -3.4674      2.00000
     56      -3.4212      2.00000
     57      -3.4172      2.00000
     58      -3.4172      2.00000
     59      -3.3617      2.00000
     60      -3.3603      2.00000
     61      -3.3603      2.00000
     62      -3.3189      2.00000
     63      -3.3189      2.00000
     64      -3.3140      2.00000
     65      -3.3094      2.00000
     66      -3.2259      2.00000
     67      -3.2259      2.00000
     68      -3.2120      2.00000
     69      -3.2002      2.00000
     70      -3.1296      2.00000
     71      -3.0946      2.00000
     72      -3.0726      2.00000
     73      -3.0726      2.00000
     74      -2.8578      2.00000
     75      -2.8191      2.00000
     76      -2.8191      2.00000
     77      -2.7701      2.00000
     78      -2.7660      2.00000
     79      -2.7472      2.00000
     80      -2.7472      2.00000
     81      -2.7247      2.00000
     82      -2.7184      2.00000
     83      -2.6432      2.00000
     84      -2.6394      2.00000
     85      -2.6394      2.00000
     86      -2.6337      2.00000
     87      -2.5766      2.00000
     88      -2.5670      2.00000
     89      -2.5670      2.00000
     90      -2.4390      2.00000
     91      -2.4390      2.00000
     92      -2.4274      2.00000
     93      -2.4217      2.00000
     94      -2.4217      2.00000
     95      -2.4136      2.00000
     96      -2.4050      2.00000
     97      -2.3606      2.00000
     98      -2.3606      2.00000
     99      -2.1462      2.00000
    100      -2.1379      2.00000
    101      -2.0282      2.00000
    102      -1.9493      2.00000
    103      -1.8946      2.00000
    104      -1.8946      2.00000
    105      -1.8197      2.00000
    106      -1.8029      2.00000
    107      -1.3698      2.00000
    108      -1.3698      2.00000
    109      -1.2427      2.00000
    110       0.1399      2.00000
    111       0.8591      2.00000
    112       1.6906      2.00000
    113       1.6906      2.00000
    114       1.9817      2.00000
    115       2.2065      2.00000
    116       2.4683      2.00000
    117       2.4683      2.00000
    118       2.8998      0.00000
    119       3.2122      0.00000
    120       3.4235      0.00000
    121       3.4462      0.00000
    122       3.5934      0.00000
    123       3.5934      0.00000
    124       3.6692      0.00000
    125       3.6713      0.00000
    126       3.8827      0.00000
    127       3.8827      0.00000
    128       4.0264      0.00000
    129       4.5837      0.00000
    130       4.5837      0.00000
    131       4.6148      0.00000
    132       4.8770      0.00000
    133       4.8850      0.00000
    134       4.8850      0.00000
    135       4.8899      0.00000
    136       4.9339      0.00000
    137       4.9339      0.00000
    138       5.5540      0.00000
    139       5.5898      0.00000
    140       5.5898      0.00000
    141       5.8710      0.00000
    142       5.9335      0.00000
    143       5.9919      0.00000
    144       5.9931      0.00000
    145       6.3518      0.00000
    146       6.3519      0.00000
    147       6.3789      0.00000
    148       7.0871      0.00000
    149       7.0872      0.00000
    150       7.1169      0.00000
    151       7.1654      0.00000
    152       7.2223      0.00000
    153       7.4263      0.00000
    154       7.5693      0.00000


--------------------------------------------------------------------------------------------------------


 soft charge-density along one line, spin component           1
         0         1         2         3         4         5         6         7         8         9
 total charge-density along one line
 
 pseudopotential strength for first ion, spin component:           1
-14.118   0.004  -0.005  -0.004   0.000   0.193   0.000   0.000
  0.004 -14.118   0.002  -0.004  -0.004   0.000   0.193  -0.000
 -0.005   0.002 -14.117  -0.002  -0.000   0.000  -0.000   0.193
 -0.004  -0.004  -0.002 -14.118  -0.004  -0.000  -0.000   0.000
  0.000  -0.004  -0.000  -0.004 -14.117  -0.000   0.000   0.000
  0.193   0.000   0.000  -0.000  -0.000   0.315   0.000  -0.000
  0.000   0.193  -0.000  -0.000   0.000   0.000   0.315   0.000
  0.000  -0.000   0.193   0.000   0.000  -0.000   0.000   0.315
 -0.000  -0.000   0.000   0.193   0.000  -0.000  -0.000  -0.000
 -0.000   0.000   0.000   0.000   0.193   0.000  -0.000  -0.000
  0.000   0.000  -0.000  -0.000  -0.000   0.000   0.000   0.000
  0.000   0.000   0.000  -0.000   0.000  -0.000  -0.000  -0.000
 -0.000   0.000   0.000  -0.000   0.000   0.000  -0.000  -0.000
 -0.000   0.000   0.000  -0.000  -0.000   0.000   0.000  -0.000
 -0.000  -0.000   0.000   0.000  -0.000   0.000   0.000  -0.000
  0.000  -0.000  -0.000   0.000  -0.000  -0.000   0.000   0.000
  0.000  -0.000  -0.000   0.000   0.000  -0.000   0.000   0.000
  0.000   0.000  -0.000  -0.000   0.000  -0.000  -0.000   0.000
 total augmentation occupancy for first ion, spin component:           1
  2.020  -0.003   0.003   0.004  -0.001   0.137   0.002  -0.005  -0.004   0.001  -0.011  -0.011   0.000  -0.000   0.000   0.000
 -0.003   2.024  -0.001   0.002   0.002   0.002   0.133   0.002   0.001  -0.005  -0.012  -0.010  -0.000  -0.000   0.000  -0.000
  0.003  -0.001   2.020   0.000   0.000  -0.005   0.002   0.137  -0.001  -0.000  -0.004  -0.000  -0.000   0.000   0.000  -0.000
  0.004   0.002   0.000   2.022   0.003  -0.004   0.001  -0.001   0.135  -0.005   0.012   0.011  -0.000   0.000  -0.000  -0.000
 -0.001   0.002   0.000   0.003   2.022   0.001  -0.005  -0.000  -0.005   0.134   0.002   0.000   0.000  -0.000  -0.000  -0.000
  0.137   0.002  -0.005  -0.004   0.001   0.067  -0.006  -0.025   0.009  -0.001   0.031  -0.030  -0.000   0.000  -0.000   0.000
  0.002   0.133   0.002   0.001  -0.005  -0.006   0.071   0.013   0.002  -0.020   0.028  -0.034   0.000   0.000  -0.000   0.000
 -0.005   0.002   0.137  -0.001  -0.000  -0.025   0.013   0.071  -0.015  -0.000   0.005  -0.000   0.000  -0.000  -0.000  -0.000
 -0.004   0.001  -0.001   0.135  -0.005   0.009   0.002  -0.015   0.070  -0.020  -0.031   0.031  -0.000  -0.000   0.000  -0.000
  0.001  -0.005  -0.000  -0.005   0.134  -0.001  -0.020  -0.000  -0.020   0.076  -0.002   0.000  -0.000   0.000   0.000   0.000
 -0.011  -0.012  -0.004   0.012   0.002   0.031   0.028   0.005  -0.031  -0.002   1.171  -0.376  -0.000  -0.000   0.000   0.000
 -0.011  -0.010  -0.000   0.011   0.000  -0.030  -0.034  -0.000   0.031   0.000  -0.376   0.180  -0.000  -0.000   0.000  -0.000
  0.000  -0.000  -0.000  -0.000   0.000  -0.000   0.000   0.000  -0.000  -0.000  -0.000  -0.000   0.093   0.013   0.016  -0.005
 -0.000  -0.000   0.000   0.000  -0.000   0.000   0.000  -0.000  -0.000   0.000  -0.000  -0.000   0.013   0.089  -0.016  -0.001
  0.000   0.000   0.000  -0.000  -0.000  -0.000  -0.000  -0.000   0.000   0.000   0.000   0.000   0.016  -0.016   0.088  -0.001
  0.000  -0.000  -0.000  -0.000  -0.000   0.000   0.000  -0.000  -0.000   0.000   0.000  -0.000  -0.005  -0.001  -0.001   0.000
  0.000   0.000  -0.000   0.000   0.000  -0.000  -0.000   0.000   0.000  -0.000   0.000  -0.000  -0.001  -0.005   0.001   0.000
 -0.000  -0.000  -0.000  -0.000   0.000   0.000   0.000   0.000  -0.000  -0.000  -0.000  -0.000  -0.001   0.001  -0.005   0.000


------------------------ aborting loop because EDIFF is reached ----------------------------------------


 


 total charge     
 
# of ion     s       p       d       tot
----------------------------------------
  1        0.376   0.167   9.206   9.749
  2        0.376   0.169   9.204   9.749
  3        0.375   0.164   9.207   9.746
  4        0.376   0.176   9.202   9.754
  5        0.354   0.181   9.202   9.736
  6        0.362   0.181   9.199   9.742
  7        0.362   0.181   9.199   9.742
  8        0.354   0.181   9.202   9.736
  9        0.369   0.181   9.197   9.747
 10        0.355   0.176   9.208   9.738
 11        0.355   0.176   9.208   9.738
 12        0.369   0.181   9.197   9.747
 13        0.364   0.181   9.200   9.745
 14        0.352   0.181   9.203   9.736
 15        0.352   0.181   9.203   9.736
 16        0.364   0.181   9.200   9.745
 17        2.063   5.838   0.173   8.075
 18        2.063   5.838   0.173   8.075
 19        2.062   5.840   0.181   8.083
 20        2.062   5.840   0.181   8.083
 21        2.062   5.840   0.170   8.072
 22        2.062   5.840   0.170   8.072
------------------------------------------------
tot       18.187  37.874 148.285 204.346
 


--------------------------------------------------------------------------------------------------------


    CHARGE:  VPU time    1.46: CPU time    1.46
    FORLOC:  VPU time    0.01: CPU time    0.01
    FORNL :  VPU time    7.90: CPU time    7.91
    STRESS:  VPU time   11.54: CPU time   11.55
    FORCOR:  VPU time    0.04: CPU time    0.04
    FORHAR:  VPU time    0.01: CPU time    0.01
    MIXING:  VPU time    0.00: CPU time    0.00


--------------------------------------------------------------------------------------------------------



  FREE ENERGIE OF THE ION-ELECTRON SYSTEM (eV)
  ---------------------------------------------------
  free  energy   TOTEN  =       -22.966126 eV

  energy  without entropy=      -22.966126  energy(sigma->0) =      -22.966126
 

  FORCE on cell =-STRESS in cart. coord.  units (eV/reduce length):
  Direction    X        Y        Z        XY       YZ       ZX
  --------------------------------------------------------------------------------------
  Alpha Z   1558.11   1558.11   1558.11
  Ewald    -5846.35  -5846.35  -5846.35      0.00      0.00      0.00
  Hartree   2064.16   2064.16   2064.16     -0.00     -0.00     -0.00
  E(xc)    -1201.70  -1201.70  -1201.70     -0.00     -0.00     -0.00
  Local     1002.71   1002.71   1002.71     -0.00     -0.00     -0.00
  n-local  -1385.22  -1385.43  -1388.30      1.30     -1.60     -0.28
  augment    808.72    808.72    808.72     -0.00     -0.00     -0.00
  Kinetic   3003.22   2999.92   2999.10     -0.97     -0.30     -0.55
  -------------------------------------------------------------------------------------
  Total        0.09      0.09      0.09      0.00      0.00     -0.00
  in kB        0.27      0.27      0.27      0.00      0.00     -0.00
  external pressure =        0.27 kB  Pullay stress =        0.00 kB


 VOLUME and BASIS-vectors are now :
 -----------------------------------------------------------------------------
  energy-cutoff  :      373.22
  volume of cell :      506.60
      direct lattice vectors                 reciprocal lattice vectors
    -5.021909920  5.021909920  5.021909920     0.000000000  0.099563713  0.099563713
     5.021909920 -5.021909920  5.021909920     0.099563713  0.000000000  0.099563713
     5.021909920  5.021909920 -5.021909920     0.099563713  0.099563713  0.000000000

  length of vectors
     8.698203132  8.698203132  8.698203132     0.140804354  0.140804354  0.140804354


 FORCES acting on ions
    electron-ion (+dipol)            ewald-force                    non-local-force                 convergence-correction
 -----------------------------------------------------------------------------------------------
   0.378E-13 0.921E-13 0.273E-13   0.400E-13 0.868E-13 0.893E-13   -.169E-20 0.424E-21 0.424E-20   -.264E-12 0.170E-13 0.149E-12
   0.150E-11 -.340E-11 -.691E-12   -.968E-13 -.655E-13 -.119E-12   0.168E-20 0.440E-21 -.168E-20   -.921E-13 0.799E-13 -.193E-12
   -.206E-11 -.504E-12 0.214E-11   0.968E-13 0.130E-13 0.102E-13   0.339E-20 0.169E-20 0.847E-21   0.875E-13 -.130E-12 0.172E-12
   0.506E-13 0.380E-13 0.366E-13   0.382E-13 0.669E-13 0.902E-13   0.197E-20 -.569E-21 -.367E-20   0.405E-12 0.226E-12 0.295E-12
   0.138E-05 0.226E+02 -.226E+02   -.708E-13 -.232E+02 0.232E+02   0.520E-17 0.524E+00 -.524E+00   -.276E-04 0.287E-03 -.287E-03
   -.166E-05 0.226E+02 0.226E+02   0.485E-10 -.232E+02 -.232E+02   -.260E-17 0.524E+00 0.524E+00   0.135E-06 0.267E-03 0.267E-03
   0.166E-05 -.226E+02 -.226E+02   -.486E-10 0.232E+02 0.232E+02   -.781E-17 -.524E+00 -.524E+00   -.135E-06 -.267E-03 -.267E-03
   -.138E-05 -.226E+02 0.226E+02   0.607E-13 0.232E+02 -.232E+02   0.173E-17 -.524E+00 0.524E+00   0.276E-04 -.287E-03 0.287E-03
   -.226E+02 0.226E+02 0.375E-11   0.232E+02 -.232E+02 0.685E-15   -.524E+00 0.524E+00 -.325E-18   -.267E-03 0.267E-03 -.661E-13
   -.226E+02 -.226E+02 -.278E-05   0.232E+02 0.232E+02 -.486E-10   -.524E+00 -.524E+00 0.867E-17   -.287E-03 -.287E-03 -.277E-04
   0.226E+02 0.226E+02 0.278E-05   -.232E+02 -.232E+02 0.487E-10   0.524E+00 0.524E+00 -.139E-16   0.287E-03 0.287E-03 0.277E-04
   0.226E+02 -.226E+02 -.189E-11   -.232E+02 0.232E+02 0.479E-14   0.524E+00 -.524E+00 -.255E-17   0.267E-03 -.267E-03 -.297E-12
   -.226E+02 0.166E-05 -.226E+02   0.232E+02 -.485E-10 0.232E+02   -.524E+00 0.347E-17 -.524E+00   -.267E-03 -.135E-06 -.267E-03
   0.226E+02 0.138E-05 -.226E+02   -.232E+02 -.595E-13 0.232E+02   0.524E+00 -.867E-17 -.524E+00   0.287E-03 -.276E-04 -.287E-03
   -.226E+02 -.138E-05 0.226E+02   0.232E+02 -.222E-14 -.232E+02   -.524E+00 0.347E-17 0.524E+00   -.287E-03 0.276E-04 0.287E-03
   0.226E+02 -.166E-05 0.226E+02   -.232E+02 0.485E-10 -.232E+02   0.524E+00 0.173E-17 0.524E+00   0.267E-03 0.135E-06 0.267E-03
   0.281E+03 -.749E-06 -.856E-06   -.280E+03 0.244E-10 0.244E-10   -.785E+00 0.173E-17 -.173E-17   0.136E-02 -.176E-04 0.175E-04
   -.281E+03 0.749E-06 0.856E-06   0.280E+03 -.245E-10 -.245E-10   0.785E+00 -.347E-17 0.000E+00   -.136E-02 0.176E-04 -.175E-04
   -.103E-05 -.103E-05 0.281E+03   0.245E-10 0.244E-10 -.280E+03   -.347E-17 0.000E+00 -.785E+00   0.175E-04 0.175E-04 0.136E-02
   0.103E-05 0.103E-05 -.281E+03   -.245E-10 -.245E-10 0.280E+03   -.434E-18 0.651E-17 0.785E+00   -.175E-04 -.175E-04 -.136E-02
   0.749E-06 -.281E+03 0.856E-06   -.245E-10 0.280E+03 -.246E-10   -.173E-17 0.785E+00 -.347E-17   0.176E-04 -.136E-02 -.175E-04
   -.749E-06 0.281E+03 -.856E-06   0.244E-10 -.280E+03 0.244E-10   -.173E-17 -.785E+00 -.173E-17   -.176E-04 0.136E-02 0.175E-04
 -----------------------------------------------------------------------------------------------
   -.428E-11 -.509E-11 0.159E-10   -.958E-13 -.568E-13 -.938E-13   0.104E-15 0.000E+00 -.520E-17   0.199E-13 0.263E-12 -.210E-13
 
 
 POSITION                                       TOTAL-FORCE (eV/Angst)
 -----------------------------------------------------------------------------------
      2.51095     -2.51095      2.51095        -0.000000     -0.000000      0.000000
      2.51095      2.51095      2.51095         0.000000     -0.000000     -0.000000
     -2.51095      2.51095      2.51095         0.000000     -0.000000     -0.000000
      2.51095      2.51095     -2.51095        -0.000000      0.000000     -0.000000
      5.02191     -1.58765      1.58765         0.000000     -0.006070      0.006070
     -0.00000      3.43426      3.43426         0.000000     -0.006070     -0.006070
      5.02191      1.58765      1.58765        -0.000000      0.006070      0.006070
      5.02191      1.58765     -1.58765        -0.000000      0.006070     -0.006070
      1.58765     -1.58765      5.02191         0.006070     -0.006070      0.000000
      1.58765      1.58765      5.02191         0.006070      0.006070     -0.000000
      3.43426      3.43426     -0.00000        -0.006070     -0.006070      0.000000
     -1.58765      1.58765      5.02191        -0.006070      0.006070      0.000000
      1.58765      5.02191      1.58765         0.006070     -0.000000      0.006070
     -1.58765      5.02191      1.58765        -0.006070      0.000000      0.006070
      1.58765      5.02191     -1.58765         0.006070      0.000000     -0.006070
      3.43426     -0.00000      3.43426        -0.006070      0.000000     -0.006070
      2.78275      0.00000      0.00000        -0.003407      0.000000      0.000000
      7.26107      0.00000      0.00000         0.003407      0.000000      0.000000
      0.00000      0.00000      2.78275         0.000000      0.000000     -0.003407
      0.00000      0.00000      7.26107        -0.000000     -0.000000      0.003407
      0.00000      7.26107      0.00000         0.000000      0.003407      0.000000
      0.00000      2.78275      0.00000         0.000000     -0.003407      0.000000
 -----------------------------------------------------------------------------------
    total drift:                               -0.000000     -0.000000      0.000000


--------------------------------------------------------------------------------------------------------



 mean value of Nose-termostat <S>:     1.000 mean value of <T> :     0.000
 mean temperature <T/S>/<1/S>  :     0.000

     LOOP+:  VPU time  483.68: CPU time  495.95
 


 total charge     
 
# of ion     s       p       d       tot
----------------------------------------
  1        0.376   0.167   9.206   9.749
  2        0.376   0.169   9.204   9.749
  3        0.375   0.164   9.207   9.746
  4        0.376   0.176   9.202   9.754
  5        0.354   0.181   9.202   9.736
  6        0.362   0.181   9.199   9.742
  7        0.362   0.181   9.199   9.742
  8        0.354   0.181   9.202   9.736
  9        0.369   0.181   9.197   9.747
 10        0.355   0.176   9.208   9.738
 11        0.355   0.176   9.208   9.738
 12        0.369   0.181   9.197   9.747
 13        0.364   0.181   9.200   9.745
 14        0.352   0.181   9.203   9.736
 15        0.352   0.181   9.203   9.736
 16        0.364   0.181   9.200   9.745
 17        2.063   5.838   0.173   8.075
 18        2.063   5.838   0.173   8.075
 19        2.062   5.840   0.181   8.083
 20        2.062   5.840   0.181   8.083
 21        2.062   5.840   0.170   8.072
 22        2.062   5.840   0.170   8.072
------------------------------------------------
tot       18.187  37.874 148.285 204.346
 
 BZINTS: Fermi energy:  2.822814;236.000000 electrons
         Band energy:***********;  BLOECHL correction: -0.039000
  
  
 General timing and accounting informations for this job:
 ========================================================
  
                  Total CPU time used (sec):      514.997
                            User time (sec):      505.374
                          System time (sec):        9.623
                         Elapsed time (sec):      540.300
  
                   Maximum memory used (kb):       67800.
                   Average memory used (kb):           0.
  
                          Minor page faults:        20367
                          Major page faults:            0
                 Voluntary context switches:          698
